/*--------------------------------*- C++ -*----------------------------------*\
  =========                 |
  \\      /  F ield         | OpenFOAM: The Open Source CFD Toolbox
   \\    /   O peration     | Website:  https://openfoam.org
    \\  /    A nd           | Version:  6.0
     \\/     M anipulation  |
\*---------------------------------------------------------------------------*/
FoamFile
{
    version     2.0;
    format      ascii;
    class       volScalarField;
    location    "0.5";
    object      p;
}
// * * * * * * * * * * * * * * * * * * * * * * * * * * * * * * * * * * * * * //

dimensions      [1 -1 -2 0 0 0 0];

internalField   nonuniform List<scalar> 
1200
(
1
1
1
1
1
1
1
1
1
1
1
1
2.1476
9.40287
11.4594
11.7225
11.9598
12.1956
12.3587
12.4328
1
1
1
1
1
1
1
1
1
1
1
1
2.14349
9.36776
11.4474
11.7076
11.9512
12.1864
12.3444
12.4121
1
1
1
1
1
1
1
1
1
1
1
1
2.1262
9.31067
11.4234
11.6799
11.9339
12.1678
12.3215
12.3821
1
1
1
1
1
1
1
1
1
1
1
1
2.09027
9.22538
11.3974
11.6475
11.9115
12.1416
12.2873
12.3375
1
1
1
1
1
1
1
1
1
1
1
1
2.03476
9.11168
11.3685
11.612
11.8861
12.1088
12.244
12.2847
1
1
1
1
1
1
1
1
1
1
1
1
1.95467
8.96689
11.3413
11.5782
11.8589
12.0712
12.1952
12.2244
1
1
1
1
1
1
1
1
1
1
1
1
1.84879
8.79019
11.3171
11.5483
11.8321
12.0307
12.1408
12.1587
1
1
1
1
1
1
1
1
1
1
1
1
1.72206
8.58468
11.2919
11.5203
11.8035
11.9869
12.0821
12.0887
1
1
1
1
1
1
1
1
1
1
1
1
1.58165
8.3405
11.262
11.4908
11.7653
11.9321
12.0158
12.0158
1
1
1
1
1
1
1
1
1
1
1
1
1.44294
8.05061
11.2218
11.4512
11.7119
11.8658
11.9404
11.932
1
1
1
1
1
1
1
1
1
1
1
1
1.31051
7.73358
11.1769
11.4075
11.6393
11.779
11.85
11.8451
1
1
1
1
1
1
1
1
1
1
1
1
1.17142
7.39651
11.1306
11.362
11.5563
11.6808
11.7457
11.7372
1
1
1
1
1
1
1
1
1
1
1
1
1.04289
7.01751
11.0773
11.3145
11.4665
11.5705
11.6218
11.6189
1
1
1
1
1
1
1
1
1
1
1
1
1.00251
6.58023
11.0038
11.2625
11.3793
11.4634
11.4883
11.4684
1
1
1
1
1
1
1
1
1
1
1
1
1.00004
6.11785
10.902
11.1926
11.2831
11.3475
11.3276
11.297
1
1
1
1
1
1
1
1
1
1
1
1
1
5.63709
10.7484
11.1042
11.1836
11.2306
11.1546
11.0688
1
1
1
1
1
1
1
1
1
1
1
1
1
5.14122
10.5423
10.9839
11.0557
11.0844
10.9241
10.7884
1
1
1
1
1
1
1
1
1
1
1
1
1
4.61414
10.2787
10.8739
10.951
10.9478
10.6838
10.4164
1
1
1
1
1
1
1
1
1
1
1
1
1
4.0435
10.0121
10.7808
10.8379
10.7838
10.3685
9.87451
1
1
1
1
1
1
1
1
1
1
1
1
1
3.40165
9.73787
10.6982
10.7239
10.6134
10.1068
9.4403
1
1
1
1
1
1
1
1
1
1
1
1
1
1.93234
8.58558
10.5281
10.4157
10.0948
9.34684
7.44659
1
1
1
1
1
1
1
1
1
1
1
1
1
1.04405
5.65746
10.0185
9.74959
9.22239
8.34894
6.88231
1
1
1
1
1
1
1
1
1
1
1
1
1
1.00013
2.15058
8.23952
9.26427
8.66517
7.83766
6.59691
1
1
1
1
1
1
1
1
1
1
1
1
1
1
1.05414
4.472
8.53298
8.27001
7.45653
6.46872
1
1
1
1
1
1
1
1
1
1
1
1
1
1
1.00021
1.44731
5.79406
8.03651
7.39303
6.49918
1
1
1
1
1
1
1
1
1
1
1
1
1
1
1
1.00929
2.02855
6.13878
7.32634
6.67867
1
1
1
1
1
1
1
1
1
1
1
1
1
1
1
1.00003
1.0446
2.4377
5.91913
6.63697
1
1
1
1
1
1
1
1
1
1
1
1
1
1
1
1
1.00026
1.087
2.52372
5.56309
1
1
1
1
1
1
1
1
1
1
1
1
1
1
1
1
1
1.00079
1.10123
2.72255
1
1
1
1
1
1
1
1
1
1
1
1
1
1
1
1
1
1
1.00093
1.14235
1
1
1
1
1
1
1
1
1
1
1
1
1
1
1
1
1
1
1
1.00132
1
1
1
1
1
1
1
1
1
1
1
1
1
1
1
1
1
1
1
1
1
1
1
1
1
1
1
1
1
1
1
1
1
1
1
1
1
1
1
1
1
1
1
1
1
1
1
1
1
1
1
1
1
1
1
1
1
1
1
1
1
1
1
1
1
1
1
1
1
1
1
1
1
1
1
1
1
1
1
1
1
1
1
1
1
1
1
1
1
1
1
1
1
1
1
1
1
1
1
1
1
1
1
1
1
1
1
1
1
1
1
1
1
1
1
1
1
1
1
1
1
1
1
1
1
1
1
1
1
1
1
1
1
1
1
1
1
1
1
1
1
1
1
1
1
1
1
1
1
1
1
1
1
1
1
1
1
1
1
1
1
1
1
1
1
1
1
1
1
1
1
1
1
1
1
1
1
1
1
1
1.0991
0.836986
0.897784
0.919831
0.917407
0.907686
0.894127
0.863486
0.845422
0.866174
0.911848
0.960003
1.00184
1.02125
1.02021
1.01778
1.01349
1.00746
1.00242
1.00024
2.71337
1.16549
0.92915
0.87843
0.886626
0.881001
0.874917
0.861582
0.85718
0.87791
0.916227
0.954479
0.994575
1.0187
1.02024
1.01812
1.0139
1.0076
1.00228
1.0002
3.51325
1.37958
0.978803
0.861712
0.870497
0.885135
0.883911
0.871365
0.86561
0.887178
0.931167
0.973625
1.00579
1.0211
1.02094
1.01896
1.01457
1.00758
1.00201
1.00015
4.0074
1.85222
1.16623
0.884998
0.828449
0.841388
0.846
0.838255
0.83053
0.852621
0.908182
0.969624
1.01257
1.0245
1.0229
1.02098
1.01557
1.00722
1.00156
1.00008
4.39979
2.30515
1.3486
0.953295
0.811456
0.827115
0.832896
0.825128
0.823598
0.852643
0.903018
0.965754
1.01735
1.02704
1.02562
1.02395
1.01704
1.00671
1.00107
1.00004
4.64539
2.6611
1.59434
1.17508
0.897699
0.858603
0.834191
0.813489
0.813957
0.845344
0.897604
0.959793
1.01127
1.02533
1.02623
1.02602
1.0187
1.00621
1.00068
1.00001
4.93335
3.03799
1.86582
1.33502
0.999657
0.878176
0.845132
0.818961
0.800272
0.811062
0.874053
0.958717
1.01488
1.02585
1.02779
1.02746
1.01812
1.00519
1.00042
1
5.03526
3.47149
2.17008
1.53727
1.15586
0.949014
0.893869
0.837131
0.776244
0.768457
0.836056
0.933561
1.01655
1.03602
1.03851
1.03452
1.01871
1.00384
1.00019
1
4.76524
3.80882
2.48295
1.74395
1.35324
1.05809
0.958654
0.870685
0.788288
0.767649
0.830236
0.92584
1.0157
1.04566
1.05032
1.04329
1.01721
1.00216
1.00005
1
4.08611
3.76237
2.83872
1.97884
1.52079
1.17701
1.0484
0.955507
0.88464
0.871289
0.922636
0.999618
1.06195
1.07759
1.07673
1.04571
1.01119
1.00071
1.00001
1
2.99404
3.6954
3.12752
2.28745
1.73672
1.35016
1.1385
1.03372
0.966311
0.96254
1.01397
1.08368
1.12403
1.12889
1.09392
1.03457
1.0043
1.00011
1
1
1.75388
3.36895
3.27281
2.66779
2.03294
1.60685
1.32169
1.19851
1.14656
1.14903
1.18584
1.21547
1.21724
1.16586
1.07818
1.01603
1.00082
1.00001
1
1
1.11369
2.6421
3.11046
2.93327
2.46912
2.00639
1.65242
1.45525
1.38963
1.37865
1.37697
1.34973
1.2632
1.14647
1.04383
1.0041
1.00007
1
1
1
1.00433
1.68033
2.76594
2.81339
2.69687
2.42041
2.10023
1.84477
1.70674
1.61799
1.51906
1.38608
1.24084
1.09434
1.01422
1.00047
1
1
1
1
1.00004
1.11885
1.9794
2.61286
2.58886
2.4745
2.28505
2.07815
1.88383
1.70463
1.53156
1.35584
1.16479
1.03469
1.00194
1.00002
1
1
1
1
1
1.00618
1.24359
1.96819
2.3663
2.38128
2.26773
2.08609
1.88725
1.68409
1.46759
1.23436
1.06006
1.00478
1.00007
1
1
1
1
1
1
1.00007
1.01721
1.2415
1.71974
2.00427
2.01981
1.91902
1.73428
1.50197
1.25511
1.07138
1.00702
1.00014
1
1
1
1
1
1
1
1
1.00023
1.01417
1.12143
1.32292
1.42524
1.40364
1.30905
1.16634
1.05004
1.00573
1.00015
1
1
1
1
1
1
1
1
1
1
1.00012
1.00354
1.02165
1.04359
1.04421
1.03238
1.01283
1.00196
1.00007
1
1
1
1
1
1
1
1
1
1
1
1
1.00001
1.00017
1.00056
1.00062
1.00044
1.00013
1.00001
1
1
1
1
1
1
1
1
1
)
;

boundaryField
{
    inlet
    {
        type            fixedValue;
        value           uniform 1;
    }
    outlet
    {
        type            zeroGradient;
    }
    bottom
    {
        type            symmetryPlane;
    }
    top
    {
        type            symmetryPlane;
    }
    obstacle
    {
        type            zeroGradient;
    }
    defaultFaces
    {
        type            empty;
    }
}


// ************************************************************************* //
