/*--------------------------------*- C++ -*----------------------------------*\
  =========                 |
  \\      /  F ield         | OpenFOAM: The Open Source CFD Toolbox
   \\    /   O peration     | Website:  https://openfoam.org
    \\  /    A nd           | Version:  6.0
     \\/     M anipulation  |
\*---------------------------------------------------------------------------*/
FoamFile
{
    version     2.0;
    format      ascii;
    class       volScalarField;
    location    "0.5";
    object      rho;
}
// * * * * * * * * * * * * * * * * * * * * * * * * * * * * * * * * * * * * * //

dimensions      [1 -3 0 0 0 0 0];

internalField   nonuniform List<scalar> 
1200
(
1.39997
1.39997
1.39997
1.39997
1.39997
1.39997
1.39997
1.39997
1.39997
1.39997
1.39997
1.39997
1.97816
4.99471
5.8252
5.80488
5.6684
5.39742
5.1307
5.02537
1.39997
1.39997
1.39997
1.39997
1.39997
1.39997
1.39997
1.39997
1.39997
1.39997
1.39997
1.39997
1.97333
4.97784
5.81831
5.7966
5.66096
5.39002
5.12434
5.01874
1.39997
1.39997
1.39997
1.39997
1.39997
1.39997
1.39997
1.39997
1.39997
1.39997
1.39997
1.39997
1.96178
4.95018
5.80462
5.78054
5.64541
5.37409
5.11246
5.00834
1.39997
1.39997
1.39997
1.39997
1.39997
1.39997
1.39997
1.39997
1.39997
1.39997
1.39997
1.39997
1.94296
4.91418
5.79062
5.76287
5.62806
5.35524
5.09644
4.99316
1.39997
1.39997
1.39997
1.39997
1.39997
1.39997
1.39997
1.39997
1.39997
1.39997
1.39997
1.39997
1.91564
4.87307
5.77926
5.74713
5.61349
5.33793
5.07898
4.97577
1.39997
1.39997
1.39997
1.39997
1.39997
1.39997
1.39997
1.39997
1.39997
1.39997
1.39997
1.39997
1.87766
4.82806
5.77485
5.73736
5.6032
5.32319
5.06203
4.95698
1.39997
1.39997
1.39997
1.39997
1.39997
1.39997
1.39997
1.39997
1.39997
1.39997
1.39997
1.39997
1.82968
4.78037
5.77824
5.73489
5.59862
5.31211
5.04616
4.93758
1.39997
1.39997
1.39997
1.39997
1.39997
1.39997
1.39997
1.39997
1.39997
1.39997
1.39997
1.39997
1.77229
4.72973
5.78565
5.73625
5.59778
5.30446
5.03139
4.91793
1.39997
1.39997
1.39997
1.39997
1.39997
1.39997
1.39997
1.39997
1.39997
1.39997
1.39997
1.39997
1.70814
4.66754
5.79139
5.73687
5.59532
5.29633
5.0162
4.89828
1.39997
1.39997
1.39997
1.39997
1.39997
1.39997
1.39997
1.39997
1.39997
1.39997
1.39997
1.39997
1.64299
4.58365
5.78854
5.73057
5.58736
5.28604
4.99954
4.87614
1.39997
1.39997
1.39997
1.39997
1.39997
1.39997
1.39997
1.39997
1.39997
1.39997
1.39997
1.39997
1.57744
4.48073
5.77608
5.71756
5.57128
5.26994
4.9794
4.85363
1.39997
1.39997
1.39997
1.39997
1.39997
1.39997
1.39997
1.39997
1.39997
1.39997
1.39997
1.39997
1.50466
4.35787
5.75554
5.6997
5.54969
5.24986
4.95536
4.82524
1.39997
1.39997
1.39997
1.39997
1.39997
1.39997
1.39997
1.39997
1.39997
1.39997
1.39997
1.39997
1.43071
4.20333
5.72868
5.67897
5.52398
5.2249
4.92534
4.79386
1.39997
1.39997
1.39997
1.39997
1.39997
1.39997
1.39997
1.39997
1.39997
1.39997
1.39997
1.39997
1.40239
4.01647
5.69574
5.65632
5.49752
5.19949
4.89187
4.75285
1.39997
1.39997
1.39997
1.39997
1.39997
1.39997
1.39997
1.39997
1.39997
1.39997
1.39997
1.39997
1.40001
3.82451
5.65756
5.62729
5.46625
5.16999
4.84971
4.70519
1.39997
1.39997
1.39997
1.39997
1.39997
1.39997
1.39997
1.39997
1.39997
1.39997
1.39997
1.39997
1.39997
3.62733
5.60333
5.58995
5.43169
5.13859
4.80305
4.63996
1.39997
1.39997
1.39997
1.39997
1.39997
1.39997
1.39997
1.39997
1.39997
1.39997
1.39997
1.39997
1.39997
3.41567
5.52502
5.53959
5.38478
5.09555
4.73859
4.55944
1.39997
1.39997
1.39997
1.39997
1.39997
1.39997
1.39997
1.39997
1.39997
1.39997
1.39997
1.39997
1.39997
3.17551
5.41521
5.49577
5.34573
5.05422
4.67172
4.4571
1.39997
1.39997
1.39997
1.39997
1.39997
1.39997
1.39997
1.39997
1.39997
1.39997
1.39997
1.39997
1.39997
2.905
5.30115
5.4697
5.31451
5.00986
4.58264
4.3026
1.39997
1.39997
1.39997
1.39997
1.39997
1.39997
1.39997
1.39997
1.39997
1.39997
1.39997
1.39997
1.39997
2.61199
5.19978
5.47029
5.30826
4.98764
4.51251
4.12444
1.39997
1.39997
1.39997
1.39997
1.39997
1.39997
1.39997
1.39997
1.39997
1.39997
1.39997
1.39997
1.39997
1.93836
4.85413
5.50596
5.32675
4.97858
4.40484
3.38754
1.39997
1.39997
1.39997
1.39997
1.39997
1.39997
1.39997
1.39997
1.39997
1.39997
1.39997
1.39997
1.39997
1.43457
3.68086
5.38966
5.23429
4.90171
4.3475
3.49588
1.39997
1.39997
1.39997
1.39997
1.39997
1.39997
1.39997
1.39997
1.39997
1.39997
1.39997
1.39997
1.39997
1.40009
2.07608
4.80917
5.0974
4.81855
4.3692
3.68993
1.39997
1.39997
1.39997
1.39997
1.39997
1.39997
1.39997
1.39997
1.39997
1.39997
1.39997
1.39997
1.39997
1.39997
1.44134
3.22178
4.86537
4.72661
4.32574
3.81575
1.39997
1.39997
1.39997
1.39997
1.39997
1.39997
1.39997
1.39997
1.39997
1.39997
1.39997
1.39997
1.39997
1.39997
1.40016
1.70216
3.8518
4.67749
4.37273
3.93855
1.39997
1.39997
1.39997
1.39997
1.39997
1.39997
1.39997
1.39997
1.39997
1.39997
1.39997
1.39997
1.39997
1.39997
1.39997
1.40762
2.05405
4.04274
4.4194
4.11271
1.39997
1.39997
1.39997
1.39997
1.39997
1.39997
1.39997
1.39997
1.39997
1.39997
1.39997
1.39997
1.39997
1.39997
1.39997
1.39999
1.4359
2.29568
3.98753
4.18451
1.39997
1.39997
1.39997
1.39997
1.39997
1.39997
1.39997
1.39997
1.39997
1.39997
1.39997
1.39997
1.39997
1.39997
1.39997
1.39997
1.40021
1.46898
2.36856
3.82501
1.39997
1.39997
1.39997
1.39997
1.39997
1.39997
1.39997
1.39997
1.39997
1.39997
1.39997
1.39997
1.39997
1.39997
1.39997
1.39997
1.39997
1.4007
1.48094
2.45103
1.39997
1.39997
1.39997
1.39997
1.39997
1.39997
1.39997
1.39997
1.39997
1.39997
1.39997
1.39997
1.39997
1.39997
1.39997
1.39997
1.39997
1.39997
1.40083
1.5099
1.39997
1.39997
1.39997
1.39997
1.39997
1.39997
1.39997
1.39997
1.39997
1.39997
1.39997
1.39997
1.39997
1.39997
1.39997
1.39997
1.39997
1.39997
1.39997
1.40114
1.39997
1.39997
1.39997
1.39997
1.39997
1.39997
1.39997
1.39997
1.39997
1.39997
1.39997
1.39997
1.39997
1.39997
1.39997
1.39997
1.39997
1.39997
1.39997
1.39997
1.39997
1.39997
1.39997
1.39997
1.39997
1.39997
1.39997
1.39997
1.39997
1.39997
1.39997
1.39997
1.39997
1.39997
1.39997
1.39997
1.39997
1.39997
1.39997
1.39997
1.39997
1.39997
1.39997
1.39997
1.39997
1.39997
1.39997
1.39997
1.39997
1.39997
1.39997
1.39997
1.39997
1.39997
1.39997
1.39997
1.39997
1.39997
1.39997
1.39997
1.39997
1.39997
1.39997
1.39997
1.39997
1.39997
1.39997
1.39997
1.39997
1.39997
1.39997
1.39997
1.39997
1.39997
1.39997
1.39997
1.39997
1.39997
1.39997
1.39997
1.39997
1.39997
1.39997
1.39997
1.39997
1.39997
1.39997
1.39997
1.39997
1.39997
1.39997
1.39997
1.39997
1.39997
1.39997
1.39997
1.39997
1.39997
1.39997
1.39997
1.39997
1.39997
1.39997
1.39997
1.39997
1.39997
1.39997
1.39997
1.39997
1.39997
1.39997
1.39997
1.39997
1.39997
1.39997
1.39997
1.39997
1.39997
1.39997
1.39997
1.39997
1.39997
1.39997
1.39997
1.39997
1.39997
1.39997
1.39997
1.39997
1.39997
1.39997
1.39997
1.39997
1.39997
1.39997
1.39997
1.39997
1.39997
1.39997
1.39997
1.39997
1.39997
1.39997
1.39997
1.39997
1.39997
1.39997
1.39997
1.39997
1.39997
1.39997
1.39997
1.39997
1.39997
1.39997
1.39997
1.39997
1.39997
1.39997
1.39997
1.39997
1.39997
1.39997
1.39997
1.39997
1.39997
1.39997
1.39997
1.39997
1.39997
1.39997
1.39997
1.39997
1.39997
1.39997
1.39997
1.39997
1.39997
1.39997
1.39997
0.733163
0.606379
0.637528
0.635904
0.6249
0.620919
0.626326
0.643854
0.696893
0.811208
0.987664
1.19129
1.35096
1.41433
1.4204
1.4193
1.41498
1.40816
1.40251
1.40021
1.55685
0.808517
0.684269
0.636229
0.625694
0.622139
0.629063
0.654023
0.715597
0.83256
1.00473
1.19585
1.34735
1.41234
1.42056
1.41969
1.41543
1.40829
1.40236
1.40017
2.11909
0.989504
0.769066
0.670717
0.65795
0.660889
0.668649
0.692862
0.755974
0.877817
1.0537
1.23723
1.36682
1.41622
1.42155
1.42065
1.41615
1.40824
1.40207
1.40011
2.53157
1.33713
0.938152
0.743058
0.683671
0.686301
0.698252
0.727341
0.792396
0.915073
1.08924
1.26612
1.38444
1.42146
1.42379
1.42275
1.4171
1.40779
1.40159
1.40005
2.85589
1.68115
1.10664
0.839614
0.713864
0.724538
0.744171
0.782553
0.86021
0.989907
1.14412
1.2939
1.39855
1.42531
1.42665
1.42563
1.41835
1.40711
1.40107
1.40001
3.08913
1.96987
1.31671
1.0276
0.809702
0.787688
0.796841
0.835458
0.922472
1.05253
1.18816
1.312
1.39989
1.42494
1.42739
1.4273
1.41953
1.40639
1.40066
1.39998
3.33364
2.2659
1.54332
1.18312
0.9261
0.842154
0.853572
0.89592
0.971637
1.0745
1.19738
1.32613
1.40938
1.42678
1.429
1.42827
1.41837
1.40516
1.40038
1.39997
3.49263
2.5815
1.78715
1.36349
1.08131
0.934918
0.939427
0.965234
1.00403
1.07332
1.18095
1.31374
1.41588
1.43735
1.43912
1.43471
1.41852
1.40372
1.40016
1.39997
3.41409
2.8528
2.03577
1.5449
1.26934
1.06333
1.03993
1.04362
1.05655
1.09834
1.19058
1.31628
1.41811
1.44648
1.45016
1.44291
1.4169
1.40208
1.40002
1.39997
3.09514
2.87859
2.29936
1.74326
1.44117
1.20975
1.16657
1.16703
1.18289
1.22587
1.30059
1.3974
1.4638
1.47696
1.47565
1.44491
1.41096
1.40067
1.39998
1.39997
2.64333
2.90559
2.54952
2.01168
1.65754
1.40697
1.29518
1.28563
1.29413
1.3319
1.40117
1.48191
1.52221
1.52615
1.4919
1.43389
1.40419
1.40007
1.39997
1.39997
2.00667
2.88577
2.74817
2.34859
1.94224
1.67538
1.5067
1.47772
1.4903
1.52339
1.57226
1.60734
1.60982
1.56132
1.47647
1.4157
1.40078
1.39997
1.39997
1.39997
1.50905
2.593
2.7627
2.6392
2.34486
2.05732
1.84127
1.73874
1.72722
1.74094
1.75101
1.73183
1.65304
1.54226
1.44287
1.404
1.40004
1.39997
1.39997
1.39997
1.40435
1.97087
2.6888
2.66955
2.60199
2.444
2.25167
2.09529
2.01359
1.9564
1.87975
1.76452
1.63127
1.49178
1.4139
1.40043
1.39997
1.39997
1.39997
1.39997
1.40001
1.51186
2.20223
2.63417
2.61661
2.54763
2.44007
2.30844
2.1713
2.03346
1.89073
1.73634
1.55902
1.43388
1.40187
1.39999
1.39997
1.39997
1.39997
1.39997
1.39997
1.40609
1.62142
2.20622
2.51208
2.53396
2.45438
2.32523
2.1767
2.01629
1.83396
1.6238
1.45849
1.40467
1.40004
1.39997
1.39997
1.39997
1.39997
1.39997
1.39997
1.40004
1.41665
1.61793
2.01857
2.25822
2.27764
2.19846
2.0516
1.85922
1.64129
1.46927
1.40688
1.40011
1.39997
1.39997
1.39997
1.39997
1.39997
1.39997
1.39997
1.39997
1.4002
1.41354
1.51109
1.68827
1.78075
1.76332
1.68329
1.55688
1.44849
1.40563
1.40012
1.39997
1.39997
1.39997
1.39997
1.39997
1.39997
1.39997
1.39997
1.39997
1.39997
1.40009
1.40337
1.4203
1.44087
1.44163
1.43084
1.41243
1.40191
1.40004
1.39997
1.39997
1.39997
1.39997
1.39997
1.39997
1.39997
1.39997
1.39997
1.39997
1.39997
1.39997
1.39998
1.40014
1.40051
1.40058
1.4004
1.40009
1.39998
1.39997
1.39997
1.39997
1.39997
1.39997
1.39997
1.39997
1.39997
1.39997
)
;

boundaryField
{
    inlet
    {
        type            calculated;
        value           uniform 1.39997;
    }
    outlet
    {
        type            calculated;
        value           nonuniform List<scalar> 
20
(
1.40022
1.40018
1.40012
1.40005
1.40001
1.39998
1.39997
1.39997
1.39997
1.39997
1.39997
1.39997
1.39997
1.39997
1.39997
1.39997
1.39997
1.39997
1.39997
1.39997
)
;
    }
    bottom
    {
        type            symmetryPlane;
    }
    top
    {
        type            symmetryPlane;
    }
    obstacle
    {
        type            calculated;
        value           nonuniform List<scalar> 
40
(
5.02537
5.01874
5.00834
4.99316
4.97577
4.95698
4.93758
4.91793
4.89828
4.87614
4.85363
4.82524
4.79386
4.75285
4.70519
4.63996
4.55944
4.4571
4.3026
4.12444
0.733163
0.606379
0.637528
0.635904
0.6249
0.620919
0.626326
0.643854
0.696893
0.811208
0.987664
1.19129
1.35096
1.41433
1.4204
1.4193
1.41498
1.40816
1.40251
1.40021
)
;
    }
    defaultFaces
    {
        type            empty;
    }
}


// ************************************************************************* //
