/*--------------------------------*- C++ -*----------------------------------*\
  =========                 |
  \\      /  F ield         | OpenFOAM: The Open Source CFD Toolbox
   \\    /   O peration     | Website:  https://openfoam.org
    \\  /    A nd           | Version:  6.0
     \\/     M anipulation  |
\*---------------------------------------------------------------------------*/
FoamFile
{
    version     2.0;
    format      ascii;
    class       volScalarField;
    location    "0.5";
    object      T;
}
// * * * * * * * * * * * * * * * * * * * * * * * * * * * * * * * * * * * * * //

dimensions      [0 0 0 1 0 0 0];

internalField   nonuniform List<scalar> 
1200
(
1
1
1
1
1
1
1
1
1
1
1
1
1.51988
2.63553
2.75404
2.82714
2.95381
3.16325
3.37221
3.46353
1
1
1
1
1
1
1
1
1
1
1
1
1.52069
2.63459
2.75441
2.82757
2.95556
3.16523
3.3725
3.46234
1
1
1
1
1
1
1
1
1
1
1
1
1.5173
2.63316
2.75511
2.82871
2.95942
3.16976
3.37405
3.46114
1
1
1
1
1
1
1
1
1
1
1
1
1.50611
2.62816
2.75549
2.82952
2.96297
3.17405
3.37526
3.45915
1
1
1
1
1
1
1
1
1
1
1
1
1.48702
2.61767
2.75392
2.82863
2.96431
3.17576
3.37494
3.45638
1
1
1
1
1
1
1
1
1
1
1
1
1.45738
2.60009
2.74941
2.82518
2.96297
3.17466
3.37274
3.45247
1
1
1
1
1
1
1
1
1
1
1
1
1.41459
2.57427
2.74195
2.81911
2.95869
3.17061
3.36825
3.44738
1
1
1
1
1
1
1
1
1
1
1
1
1.3603
2.54101
2.73234
2.81162
2.95197
3.16361
3.36181
3.44123
1
1
1
1
1
1
1
1
1
1
1
1
1.2963
2.50163
2.7224
2.8041
2.94372
3.154
3.35349
3.43421
1
1
1
1
1
1
1
1
1
1
1
1
1.2295
2.45887
2.714
2.79752
2.93454
3.14257
3.34354
3.42575
1
1
1
1
1
1
1
1
1
1
1
1
1.16307
2.4163
2.70897
2.79317
2.92475
3.1291
3.33166
3.41658
1
1
1
1
1
1
1
1
1
1
1
1
1.08992
2.37613
2.7074
2.79075
2.9152
3.11488
3.31834
3.40537
1
1
1
1
1
1
1
1
1
1
1
1
1.02048
2.33727
2.70705
2.78922
2.90601
3.10021
3.30335
3.39311
1
1
1
1
1
1
1
1
1
1
1
1
1.00078
2.29358
2.70465
2.78753
2.89778
3.08654
3.28776
3.37807
1
1
1
1
1
1
1
1
1
1
1
1
1.00001
2.23945
2.69771
2.78453
2.88972
3.07275
3.26994
3.36127
1
1
1
1
1
1
1
1
1
1
1
1
1
2.17563
2.68544
2.78097
2.88248
3.05968
3.25127
3.33968
1
1
1
1
1
1
1
1
1
1
1
1
1
2.10722
2.6713
2.77585
2.87434
3.04538
3.2274
3.31257
1
1
1
1
1
1
1
1
1
1
1
1
1
2.0342
2.6573
2.76998
2.86792
3.03243
3.2016
3.27178
1
1
1
1
1
1
1
1
1
1
1
1
1
1.94863
2.64408
2.75933
2.85497
3.01345
3.16752
3.21294
1
1
1
1
1
1
1
1
1
1
1
1
1
1.82321
2.62179
2.73792
2.82825
2.97905
3.13556
3.20434
1
1
1
1
1
1
1
1
1
1
1
1
1
1.39562
2.47615
2.67691
2.73744
2.83865
2.97066
3.07745
1
1
1
1
1
1
1
1
1
1
1
1
1
1.01887
2.15174
2.60232
2.60764
2.63399
2.6885
2.75611
1
1
1
1
1
1
1
1
1
1
1
1
1
1.00005
1.45021
2.39856
2.54437
2.51755
2.51133
2.50289
1
1
1
1
1
1
1
1
1
1
1
1
1
1
1.02388
1.94323
2.45529
2.44948
2.41321
2.37332
1
1
1
1
1
1
1
1
1
1
1
1
1
1
1.00008
1.19036
2.1059
2.40532
2.36695
2.31015
1
1
1
1
1
1
1
1
1
1
1
1
1
1
1
1.0038
1.38259
2.12581
2.32082
2.27342
1
1
1
1
1
1
1
1
1
1
1
1
1
1
1
1.00001
1.01846
1.48658
2.07813
2.22046
1
1
1
1
1
1
1
1
1
1
1
1
1
1
1
1
1.00009
1.03593
1.49168
2.03611
1
1
1
1
1
1
1
1
1
1
1
1
1
1
1
1
1
1.00026
1.04102
1.55505
1
1
1
1
1
1
1
1
1
1
1
1
1
1
1
1
1
1
1.00032
1.05918
1
1
1
1
1
1
1
1
1
1
1
1
1
1
1
1
1
1
1
1.00048
1
1
1
1
1
1
1
1
1
1
1
1
1
1
1
1
1
1
1
1
1
1
1
1
1
1
1
1
1
1
1
1
1
1
1
1
1
1
1
1
1
1
1
1
1
1
1
1
1
1
1
1
1
1
1
1
1
1
1
1
1
1
1
1
1
1
1
1
1
1
1
1
1
1
1
1
1
1
1
1
1
1
1
1
1
1
1
1
1
1
1
1
1
1
1
1
1
1
1
1
1
1
1
1
1
1
1
1
1
1
1
1
1
1
1
1
1
1
1
1
1
1
1
1
1
1
1
1
1
1
1
1
1
1
1
1
1
1
1
1
1
1
1
1
1
1
1
1
1
1
1
1
1
1
1
1
1
1
1
1
1
1
1
1
1
1
1
1
1
1
1
1
1
1
1
1
1
1
1
1
2.09871
1.93238
1.97148
2.02505
2.05528
2.04654
1.99856
1.87753
1.69834
1.49483
1.2925
1.12817
1.03818
1.01088
1.00554
1.00392
1.00274
1.0016
1.00061
1.00007
2.43995
2.01808
1.90098
1.93291
1.98379
1.98247
1.94711
1.84426
1.67696
1.47623
1.27666
1.1174
1.03342
1.00977
1.00545
1.00397
1.00282
1.00164
1.00057
1.00006
2.32102
1.95185
1.78176
1.79863
1.85222
1.87499
1.85067
1.76065
1.603
1.4149
1.23717
1.10169
1.03018
1.00939
1.00544
1.00412
1.00298
1.00166
1.00051
1.00004
2.21611
1.93927
1.74032
1.66739
1.69643
1.71633
1.6962
1.61345
1.46734
1.30442
1.16726
1.07213
1.02392
1.00901
1.00579
1.00463
1.0033
1.00162
1.0004
1.00003
2.1568
1.9196
1.70606
1.58952
1.59136
1.59817
1.56688
1.47614
1.34038
1.20584
1.10495
1.04492
1.01838
1.00878
1.00644
1.00552
1.00386
1.0016
1.00028
1.00001
2.10525
1.89122
1.69515
1.60088
1.55211
1.52601
1.46559
1.36316
1.23528
1.12439
1.05762
1.02415
1.01133
1.00736
1.00651
1.00637
1.00466
1.00162
1.00019
1
2.07177
1.877
1.69252
1.57972
1.51116
1.45985
1.38613
1.27971
1.15306
1.05673
1.02194
1.0121
1.0081
1.00658
1.00691
1.0071
1.00491
1.00148
1.00012
1
2.01831
1.88262
1.69994
1.5784
1.49649
1.42108
1.33208
1.21417
1.08236
1.00233
0.99111
0.994833
1.00513
1.00907
1.01025
1.00947
1.00538
1.00115
1.00006
1
1.95402
1.86912
1.70749
1.58035
1.49249
1.39307
1.29056
1.16799
1.04451
0.978463
0.976248
0.984702
1.00271
1.01204
1.01397
1.01224
1.00505
1.00065
1.00002
1
1.8482
1.82978
1.72836
1.58916
1.47732
1.36208
1.25816
1.14623
1.04698
0.995028
0.993139
1.00146
1.01564
1.02142
1.02151
1.01318
1.00332
1.00021
1
1
1.58571
1.78051
1.71735
1.59188
1.46685
1.34344
1.23061
1.12566
1.04534
1.01174
1.0131
1.02376
1.03376
1.03556
1.02652
1.0101
1.00127
1.00003
1
1
1.22361
1.63437
1.66723
1.59024
1.46534
1.34271
1.22806
1.13545
1.07707
1.05594
1.0559
1.05865
1.05856
1.04537
1.02232
1.00474
1.00024
1
1
1
1.03318
1.42648
1.5762
1.55596
1.47415
1.36532
1.25638
1.17171
1.12634
1.10864
1.10092
1.09109
1.06981
1.04069
1.0128
1.00122
1.00002
1
1
1
1.0012
1.19359
1.44013
1.4754
1.45102
1.38646
1.30581
1.23258
1.18662
1.1578
1.13134
1.09971
1.0649
1.02699
1.00422
1.00014
1
1
1
1
1.00001
1.03605
1.25832
1.38864
1.38513
1.35978
1.31103
1.26031
1.21462
1.17358
1.13403
1.09318
1.04596
1.01021
1.00058
1
1
1
1
1
1
1.0018
1.07374
1.24893
1.31873
1.31562
1.2935
1.25599
1.21381
1.16931
1.1203
1.06421
1.01752
1.00142
1.00002
1
1
1
1
1
1
1.00002
1.00523
1.07425
1.19272
1.24253
1.24149
1.22202
1.18343
1.13096
1.07058
1.02085
1.00207
1.00004
1
1
1
1
1
1
1
1
1.00007
1.00443
1.03897
1.09701
1.12048
1.1144
1.08872
1.04879
1.01486
1.00168
1.00004
1
1
1
1
1
1
1
1
1
1
1.00004
1.00111
1.00702
1.01397
1.01404
1.01011
1.00389
1.00058
1.00002
1
1
1
1
1
1
1
1
1
1
1
1
1
1.00005
1.00017
1.00019
1.00013
1.00004
1
1
1
1
1
1
1
1
1
1
)
;

boundaryField
{
    inlet
    {
        type            fixedValue;
        value           uniform 1;
    }
    outlet
    {
        type            inletOutlet;
        inletValue      uniform 1;
        value           nonuniform List<scalar> 
20
(
1.00007
1.00006
1.00004
1.00002
1.00001
1
1
1
1
1
1
1
1
1
1
1
1
1
1
1
)
;
    }
    bottom
    {
        type            symmetryPlane;
    }
    top
    {
        type            symmetryPlane;
    }
    obstacle
    {
        type            zeroGradient;
    }
    defaultFaces
    {
        type            empty;
    }
}


// ************************************************************************* //
