/*--------------------------------*- C++ -*----------------------------------*\
  =========                 |
  \\      /  F ield         | OpenFOAM: The Open Source CFD Toolbox
   \\    /   O peration     | Website:  https://openfoam.org
    \\  /    A nd           | Version:  6.0
     \\/     M anipulation  |
\*---------------------------------------------------------------------------*/
FoamFile
{
    version     2.0;
    format      ascii;
    class       volVectorField;
    location    "0.5";
    object      U;
}
// * * * * * * * * * * * * * * * * * * * * * * * * * * * * * * * * * * * * * //

dimensions      [0 1 -1 0 0 0 0];

internalField   nonuniform List<vector> 
1200
(
(3 1.5902e-15 0)
(3 -1.24944e-15 0)
(3 -2.32334e-15 0)
(3 -2.08584e-15 0)
(3 -8.46729e-16 0)
(3 3.61409e-16 0)
(3 9.29337e-17 0)
(3 -4.74994e-16 0)
(3 -5.67928e-16 0)
(3 -9.29337e-16 0)
(3 6.4021e-16 0)
(3 1.33205e-15 0)
(2.49657 0.00418783 0)
(0.774055 0.0115466 0)
(0.538589 0.0136828 0)
(0.455321 0.0130423 0)
(0.377804 0.014471 0)
(0.286128 0.0172725 0)
(0.177161 0.019871 0)
(0.0620037 0.0211397 0)
(3 5.67928e-16 0)
(3 -1.0326e-16 0)
(3 -3.71735e-15 0)
(3 -2.72605e-15 0)
(3 -1.94128e-15 0)
(3 2.40595e-15 0)
(3 3.20105e-16 0)
(3 -7.84773e-16 0)
(3 -6.50536e-16 0)
(3 -2.68475e-16 0)
(3 2.83964e-15 0)
(3 2.12715e-15 0)
(2.48957 0.013376 0)
(0.764653 0.0378798 0)
(0.526595 0.0384251 0)
(0.443635 0.0366894 0)
(0.365686 0.0410084 0)
(0.275477 0.0503706 0)
(0.170491 0.0595146 0)
(0.0596339 0.0642867 0)
(3 7.22817e-17 0)
(3 1.34238e-16 0)
(3 -3.12877e-15 0)
(3 -8.67381e-16 0)
(3 -8.77707e-16 0)
(3 1.3527e-15 0)
(3 -1.50759e-15 0)
(3 1.75541e-16 0)
(3 -2.68475e-16 0)
(3 9.60315e-16 0)
(3 3.42822e-15 0)
(3 2.37497e-15 0)
(2.49 0.029557 0)
(0.760194 0.0671173 0)
(0.518009 0.0648512 0)
(0.434541 0.0617221 0)
(0.353382 0.0681973 0)
(0.262409 0.0828242 0)
(0.160443 0.09643 0)
(0.0552155 0.103649 0)
(3 1.75541e-16 0)
(3 4.54342e-16 0)
(3 6.09232e-16 0)
(3 -7.22817e-16 0)
(3 1.36303e-15 0)
(3 -1.30107e-15 0)
(3 -2.62279e-15 0)
(3 -1.17716e-15 0)
(3 -6.60862e-16 0)
(3 1.17716e-15 0)
(3 2.28204e-15 0)
(3 1.85867e-15 0)
(2.50362 0.0494604 0)
(0.761972 0.0996509 0)
(0.514012 0.0913281 0)
(0.431045 0.0873753 0)
(0.346618 0.0968553 0)
(0.253894 0.116181 0)
(0.153113 0.132194 0)
(0.0514507 0.139944 0)
(3 5.16298e-17 0)
(3 1.44563e-15 0)
(3 4.69831e-15 0)
(3 2.58149e-15 0)
(3 -7.84773e-16 0)
(3 -3.14942e-15 0)
(3 -4.02713e-16 0)
(3 -1.29075e-15 0)
(3 3.61409e-16 0)
(3 3.15974e-15 0)
(3 -4.3369e-16 0)
(3 -1.94128e-15 0)
(2.52723 0.0701719 0)
(0.768561 0.134215 0)
(0.51542 0.117986 0)
(0.435038 0.113329 0)
(0.347876 0.126048 0)
(0.253274 0.149853 0)
(0.152096 0.166925 0)
(0.0506496 0.173989 0)
(3 2.06519e-17 0)
(3 1.01194e-15 0)
(3 4.17169e-15 0)
(3 3.66572e-15 0)
(3 1.78639e-15 0)
(3 -2.17878e-15 0)
(3 2.83964e-15 0)
(3 4.21299e-15 0)
(3 7.93034e-15 0)
(3 5.10103e-15 0)
(3 -6.09232e-15 0)
(3 -5.05972e-15 0)
(2.56601 0.0918063 0)
(0.783883 0.169663 0)
(0.52522 0.14416 0)
(0.447641 0.138566 0)
(0.357288 0.155141 0)
(0.25974 0.18331 0)
(0.156115 0.201378 0)
(0.0515315 0.207436 0)
(3 1.0326e-16 0)
(3 5.78254e-16 0)
(3 -3.20105e-16 0)
(3 1.10488e-15 0)
(3 -5.16298e-17 0)
(3 -2.01356e-15 0)
(3 -1.50759e-15 0)
(3 8.77707e-16 0)
(3 2.12715e-15 0)
(3 6.71188e-16 0)
(3 -2.71573e-15 0)
(3 -2.91192e-15 0)
(2.62702 0.112117 0)
(0.811787 0.202507 0)
(0.543683 0.168145 0)
(0.466696 0.163431 0)
(0.372101 0.184882 0)
(0.270372 0.217488 0)
(0.16288 0.236332 0)
(0.0536135 0.241493 0)
(3 6.19558e-17 0)
(3 4.13039e-16 0)
(3 -1.87933e-15 0)
(3 -3.39724e-15 0)
(3 -5.11135e-15 0)
(3 -4.09941e-15 0)
(3 -1.27009e-15 0)
(3 -1.92063e-15 0)
(3 -5.30755e-15 0)
(3 -4.64668e-15 0)
(3 -1.53857e-15 0)
(3 -1.47661e-15 0)
(2.69988 0.124461 0)
(0.8481 0.231299 0)
(0.565853 0.191296 0)
(0.487696 0.188838 0)
(0.389062 0.216271 0)
(0.283616 0.252956 0)
(0.171908 0.272527 0)
(0.0565353 0.277121 0)
(3 -6.81514e-16 0)
(3 -1.18749e-15 0)
(3 -1.72444e-15 0)
(3 -1.61085e-15 0)
(3 -1.3114e-15 0)
(3 -3.35594e-15 0)
(3 -2.78801e-15 0)
(3 -3.04616e-15 0)
(3 -7.76512e-15 0)
(3 -8.40533e-15 0)
(3 -1.75541e-16 0)
(3 -1.02227e-15 0)
(2.78296 0.123534 0)
(0.890397 0.253647 0)
(0.585583 0.215535 0)
(0.505052 0.215603 0)
(0.405426 0.248915 0)
(0.299033 0.289355 0)
(0.183536 0.310326 0)
(0.0606684 0.315325 0)
(3 -1.34238e-16 0)
(3 -2.57117e-15 0)
(3 -1.42498e-15 0)
(3 -4.3369e-16 0)
(3 5.98906e-16 0)
(3 -3.82061e-16 0)
(3 -2.03421e-15 0)
(3 -2.1478e-15 0)
(3 -3.44887e-15 0)
(3 -4.18202e-15 0)
(3 -2.68475e-16 0)
(3 -1.12553e-15 0)
(2.8616 0.111384 0)
(0.931971 0.27375 0)
(0.598022 0.24138 0)
(0.516609 0.243804 0)
(0.418343 0.283595 0)
(0.310619 0.32867 0)
(0.191269 0.351593 0)
(0.0624883 0.356346 0)
(3 -2.89127e-16 0)
(3 -3.30431e-16 0)
(3 -1.89998e-15 0)
(3 -7.22817e-16 0)
(3 1.0326e-15 0)
(3 2.22008e-15 0)
(3 -3.09779e-17 0)
(3 -3.20105e-15 0)
(3 -3.57278e-15 0)
(3 -4.58473e-15 0)
(3 -3.96517e-15 0)
(3 -2.76736e-15 0)
(2.92655 0.0843971 0)
(0.969267 0.297617 0)
(0.608717 0.266469 0)
(0.524729 0.271905 0)
(0.428871 0.319885 0)
(0.323336 0.369504 0)
(0.203533 0.394538 0)
(0.0683031 0.400116 0)
(3 -3.92387e-16 0)
(3 6.81514e-16 0)
(3 -4.23365e-16 0)
(3 1.02227e-15 0)
(3 5.67928e-16 0)
(3 2.16845e-16 0)
(3 -9.29337e-16 0)
(3 -3.79995e-15 0)
(3 -6.61894e-15 0)
(3 -4.83255e-15 0)
(3 -4.5331e-15 0)
(3 -3.30431e-15 0)
(2.97319 0.0576453 0)
(1.01338 0.318995 0)
(0.620789 0.290428 0)
(0.530799 0.29982 0)
(0.438496 0.356115 0)
(0.334183 0.411574 0)
(0.212177 0.441014 0)
(0.0703778 0.447976 0)
(3 -5.16298e-17 0)
(3 0 0)
(3 1.10488e-15 0)
(3 3.00486e-15 0)
(3 7.74447e-16 0)
(3 7.95099e-16 0)
(3 5.16298e-17 0)
(3 -2.08584e-15 0)
(3 -4.10973e-15 0)
(3 6.9184e-16 0)
(3 -1.29075e-15 0)
(3 -9.91293e-16 0)
(3.00258 0.0184713 0)
(1.06846 0.334104 0)
(0.632004 0.314224 0)
(0.534311 0.327141 0)
(0.447022 0.391295 0)
(0.345112 0.453631 0)
(0.223603 0.48922 0)
(0.0770004 0.498921 0)
(3 2.06519e-17 0)
(3 1.85867e-16 0)
(3 1.12553e-15 0)
(3 1.9103e-15 0)
(3 4.7706e-15 0)
(3 4.5744e-15 0)
(3 7.53795e-16 0)
(3 -1.08423e-15 0)
(3 1.61085e-15 0)
(3 3.56246e-15 0)
(3 -1.17716e-15 0)
(3 -2.89127e-16 0)
(3.00158 0.00132772 0)
(1.13884 0.350934 0)
(0.643674 0.338896 0)
(0.538525 0.354039 0)
(0.455991 0.425006 0)
(0.355112 0.495299 0)
(0.232317 0.540179 0)
(0.078946 0.554908 0)
(3 1.23912e-16 0)
(3 3.82061e-16 0)
(3 7.95099e-16 0)
(3 -3.40757e-16 0)
(3 1.73476e-15 0)
(3 4.28528e-15 0)
(3 4.55375e-15 0)
(3 4.74994e-15 0)
(3 3.21137e-15 0)
(3 6.81514e-16 0)
(3 5.19396e-15 0)
(3 7.87871e-15 0)
(3.00003 1.96694e-05 0)
(1.22867 0.367792 0)
(0.661421 0.364055 0)
(0.546124 0.381354 0)
(0.468559 0.457151 0)
(0.371148 0.535265 0)
(0.249332 0.592148 0)
(0.0887367 0.615476 0)
(3 -2.58149e-16 0)
(3 -1.23912e-16 0)
(3 2.06519e-17 0)
(3 -2.34399e-15 0)
(3 -5.20429e-15 0)
(3 -1.21846e-15 0)
(3 6.71188e-16 0)
(3 1.25977e-15 0)
(3 9.70641e-16 0)
(3 2.72605e-15 0)
(3 5.89613e-15 0)
(3 4.36788e-15 0)
(3 4.24025e-08 0)
(1.33351 0.381291 0)
(0.682611 0.392657 0)
(0.554195 0.411472 0)
(0.484185 0.487931 0)
(0.390368 0.573691 0)
(0.264536 0.648984 0)
(0.0900192 0.685088 0)
(3 3.09779e-16 0)
(3 9.70641e-16 0)
(3 1.44563e-16 0)
(3 -3.42822e-15 0)
(3 -4.76027e-15 0)
(3 -2.81899e-15 0)
(3 -1.96193e-16 0)
(3 -3.20105e-16 0)
(3 3.62441e-15 0)
(3 5.10103e-15 0)
(3 3.7793e-15 0)
(3 -3.72767e-15 0)
(3 7.62299e-12 0)
(1.44806 0.398314 0)
(0.697814 0.429422 0)
(0.549597 0.443278 0)
(0.485225 0.518238 0)
(0.4042 0.612033 0)
(0.288524 0.708432 0)
(0.106124 0.76255 0)
(3 8.05425e-16 0)
(3 7.33143e-16 0)
(3 -3.71735e-16 0)
(3 -2.13747e-15 0)
(3 2.03421e-15 0)
(3 1.27009e-15 0)
(3 7.74447e-16 0)
(3 1.71411e-15 0)
(3 1.71411e-15 0)
(3 9.29337e-16 0)
(3 -3.1804e-15 0)
(3 -9.8613e-15 0)
(3 -5.6483e-15 0)
(1.57492 0.419049 0)
(0.699328 0.46977 0)
(0.53911 0.474067 0)
(0.480693 0.54442 0)
(0.417375 0.647277 0)
(0.314645 0.774471 0)
(0.111386 0.860145 0)
(3 7.74447e-16 0)
(3 -4.23365e-16 0)
(3 -2.64345e-15 0)
(3 1.20814e-15 0)
(3 1.81737e-15 0)
(3 8.88033e-16 0)
(3 4.3369e-16 0)
(3 2.58149e-15 0)
(3 1.36303e-15 0)
(3 -9.70641e-16 0)
(3 -2.67442e-15 0)
(3 -7.90969e-15 0)
(3 -8.19882e-15 0)
(1.74953 0.462685 0)
(0.716546 0.52071 0)
(0.549938 0.508254 0)
(0.493963 0.569623 0)
(0.44426 0.677073 0)
(0.368446 0.838714 0)
(0.143567 0.9701 0)
(3 9.29337e-17 0)
(3 4.3369e-16 0)
(3 1.32172e-15 0)
(3 4.5331e-15 0)
(3 2.82931e-15 0)
(3 1.80704e-15 0)
(3 3.54181e-15 0)
(3 3.68637e-15 0)
(3 2.17878e-15 0)
(3 1.54889e-15 0)
(3 -1.60052e-15 0)
(3 -3.14942e-15 0)
(3 -2.49888e-15 0)
(2.02878 0.502577 0)
(0.78715 0.566129 0)
(0.600488 0.534873 0)
(0.539514 0.592869 0)
(0.490976 0.703758 0)
(0.450588 0.904234 0)
(0.224388 1.15362 0)
(3 -2.16845e-16 0)
(3 1.44563e-16 0)
(3 1.02227e-15 0)
(3 1.43531e-15 0)
(3 1.40949e-15 0)
(3 1.48178e-15 0)
(3 1.26235e-15 0)
(3 3.76898e-16 0)
(3 1.93612e-16 0)
(3 6.50536e-16 0)
(3 5.05972e-16 0)
(3 1.44047e-15 0)
(3 2.06777e-15 0)
(2.74518 0.277239 0)
(1.02254 0.651984 0)
(0.75715 0.600501 0)
(0.69822 0.636957 0)
(0.652652 0.742268 0)
(0.69417 0.953175 0)
(0.780884 1.23312 0)
(3 2.83964e-17 0)
(3 1.2133e-16 0)
(3 -4.38853e-16 0)
(3 -7.35725e-16 0)
(3 -5.85998e-16 0)
(3 -7.22817e-17 0)
(3 -1.172e-15 0)
(3 -9.19011e-16 0)
(3 -1.17716e-15 0)
(3 -1.69088e-15 0)
(3 -1.63408e-15 0)
(3 -1.44822e-15 0)
(3 -1.68571e-15 0)
(3.03178 0.0143514 0)
(1.51801 0.631783 0)
(0.906128 0.737419 0)
(0.851539 0.761016 0)
(0.85728 0.863788 0)
(0.95071 0.989035 0)
(1.1971 1.14036 0)
(3 4.64668e-17 0)
(3 1.44563e-16 0)
(3 -6.60862e-16 0)
(3 -6.42791e-16 0)
(3 -4.54342e-16 0)
(3 -3.87224e-17 0)
(3 -6.66025e-16 0)
(3 1.29075e-17 0)
(3 1.0326e-15 0)
(3 -4.77576e-16 0)
(3 -1.01711e-15 0)
(3 -1.10488e-15 0)
(3 -2.5247e-15 0)
(3.00039 0.000110981 0)
(2.63741 0.332685 0)
(1.16814 0.783642 0)
(0.966383 0.854501 0)
(1.02289 0.883003 0)
(1.11355 0.94789 0)
(1.33346 1.02867 0)
(3 -2.19427e-16 0)
(3 -7.35725e-16 0)
(3 -5.31787e-16 0)
(3 -6.32465e-16 0)
(3 -8.93196e-16 0)
(3 -9.96456e-16 0)
(3 -5.96324e-16 0)
(3 -1.01453e-15 0)
(3 1.00678e-16 0)
(3 2.78801e-16 0)
(3 1.52308e-15 0)
(3 2.41111e-15 0)
(3 2.33625e-15 0)
(3 4.57155e-08 0)
(3.02312 0.0188781 0)
(1.87217 0.699187 0)
(1.1462 0.913338 0)
(1.14401 0.932994 0)
(1.23328 0.960127 0)
(1.39727 0.995131 0)
(3 -1.0326e-17 0)
(3 -1.18232e-15 0)
(3 -8.88033e-16 0)
(3 -1.11004e-15 0)
(3 -1.71411e-15 0)
(3 -1.99033e-15 0)
(3 -2.86545e-16 0)
(3 -2.78801e-16 0)
(3 -4.07876e-16 0)
(3 -3.74316e-16 0)
(3 -6.37628e-16 0)
(3 2.52986e-16 0)
(3 6.66025e-16 0)
(3 1.40124e-12 0)
(3.00032 0.000222809 0)
(2.93418 0.163295 0)
(1.65371 0.855109 0)
(1.27103 0.975486 0)
(1.33933 0.978541 0)
(1.46772 0.977473 0)
(3 2.19427e-16 0)
(3 7.43469e-16 0)
(3 6.24721e-16 0)
(3 5.57602e-16 0)
(3 8.67381e-16 0)
(3 6.86677e-16 0)
(3 8.38985e-16 0)
(3 9.39663e-16 0)
(3 1.37852e-15 0)
(3 1.32689e-15 0)
(3 1.25202e-15 0)
(3 9.65478e-16 0)
(3 5.83417e-16 0)
(3 2.81641e-15 0)
(3 9.50382e-08 0)
(3.00374 0.00598509 0)
(2.71984 0.363995 0)
(1.6332 0.923056 0)
(1.43151 1.01805 0)
(1.51523 1.01086 0)
(3 -1.54889e-16 0)
(3 5.29206e-16 0)
(3 1.45854e-15 0)
(3 2.10133e-15 0)
(3 2.40595e-15 0)
(3 1.77607e-15 0)
(3 1.283e-15 0)
(3 1.43015e-15 0)
(3 1.20039e-15 0)
(3 1.7296e-15 0)
(3 2.27171e-15 0)
(3 2.27946e-15 0)
(3 2.96097e-15 0)
(3 3.67604e-15 0)
(3 3.94482e-12 0)
(3.00001 2.11682e-05 0)
(3.00199 0.0228047 0)
(2.55861 0.482086 0)
(1.71954 0.953424 0)
(1.58535 1.03437 0)
(3 -2.19427e-16 0)
(3 -7.04747e-16 0)
(3 -6.9184e-16 0)
(3 -4.77576e-16 0)
(3 -5.05972e-16 0)
(3 -3.82061e-16 0)
(3 -5.55021e-16 0)
(3 -5.08554e-16 0)
(3 -7.15073e-16 0)
(3 -5.29206e-16 0)
(3 -8.02844e-16 0)
(3 -6.66025e-16 0)
(3 -1.32689e-15 0)
(3 -9.93874e-16 0)
(3 -2.62279e-15 0)
(3 5.97805e-09 0)
(3.00003 0.000194209 0)
(2.98666 0.0448937 0)
(2.56216 0.510596 0)
(1.7976 0.976228 0)
(3 1.18749e-16 0)
(3 2.19427e-16 0)
(3 1.18749e-16 0)
(3 -2.58149e-17 0)
(3 2.16845e-16 0)
(3 2.60731e-16 0)
(3 6.47954e-16 0)
(3 6.55699e-16 0)
(3 -6.45373e-17 0)
(3 -2.14264e-16 0)
(3 -9.26755e-16 0)
(3 -2.38272e-15 0)
(3 -4.89193e-15 0)
(3 -4.55633e-15 0)
(3 -5.81352e-15 0)
(3 3.42525e-13 0)
(3 1.24758e-07 0)
(2.99994 0.000603647 0)
(2.9899 0.0461967 0)
(2.47881 0.583052 0)
(3 1.18749e-16 0)
(3 1.31656e-16 0)
(3 4.00131e-16 0)
(3 7.74447e-17 0)
(3 1.39401e-16 0)
(3 -1.39401e-16 0)
(3 4.18202e-16 0)
(3 3.20105e-16 0)
(3 1.16167e-16 0)
(3 -9.03522e-17 0)
(3 2.50405e-16 0)
(3 -2.45242e-16 0)
(3 -3.30431e-16 0)
(3 -1.51017e-15 0)
(3 -2.85513e-15 0)
(3 -1.75541e-15 0)
(3 1.1585e-11 0)
(3 5.40611e-07 0)
(2.99996 0.000819866 0)
(2.99974 0.0511939 0)
(3 -1.9103e-16 0)
(3 -4.23365e-16 0)
(3 -8.90614e-16 0)
(3 -6.60862e-16 0)
(3 -9.73222e-16 0)
(3 -1.29333e-15 0)
(3 -2.01098e-15 0)
(3 -3.0539e-15 0)
(3 -2.01098e-15 0)
(3 -2.54535e-15 0)
(3 -2.62021e-15 0)
(3 -2.15296e-15 0)
(3 -6.68606e-16 0)
(3 -1.33463e-15 0)
(3 -2.19943e-15 0)
(3 -3.15716e-15 0)
(3 -6.94421e-16 0)
(3 7.29196e-11 0)
(3 1.07917e-06 0)
(3.00074 0.000569186 0)
(3 2.22008e-16 0)
(3 5.16298e-16 0)
(3 5.55021e-16 0)
(3 4.10457e-16 0)
(3 -1.47661e-15 0)
(3 -3.04616e-15 0)
(3 -3.96775e-15 0)
(3 -4.76027e-15 0)
(3 -3.90838e-15 0)
(3 -3.74058e-15 0)
(3 -2.95839e-15 0)
(3 -4.00131e-16 0)
(3 6.04069e-16 0)
(3 1.05067e-15 0)
(3 1.94386e-15 0)
(3 1.98259e-15 0)
(3 2.56084e-15 0)
(3 7.57151e-15 0)
(3 1.50128e-10 0)
(3 7.83177e-07 0)
(3 2.14264e-16 0)
(3 5.21461e-16 0)
(3 7.17654e-16 0)
(3 1.00678e-16 0)
(3 3.82061e-16 0)
(3 -7.48632e-17 0)
(3 5.83417e-16 0)
(3 1.34754e-15 0)
(3 7.0991e-16 0)
(3 2.38013e-15 0)
(3 2.45242e-15 0)
(3 3.2501e-15 0)
(3 3.07714e-15 0)
(3 3.49534e-15 0)
(3 3.69153e-15 0)
(3 4.55117e-15 0)
(3 3.5702e-15 0)
(3 2.02905e-15 0)
(3 8.36661e-15 0)
(3 6.55664e-11 0)
(3 3.76898e-16 0)
(3 -3.09779e-17 0)
(3 -1.64183e-15 0)
(3 -1.32689e-15 0)
(3 1.66764e-15 0)
(3 3.29656e-15 0)
(3 6.07941e-15 0)
(3 5.90645e-15 0)
(3 5.07779e-15 0)
(3 3.97033e-15 0)
(3 2.37239e-15 0)
(3 7.15073e-16 0)
(3 -1.02227e-15 0)
(3 -1.98e-15 0)
(3 -1.62376e-15 0)
(3 -7.07329e-16 0)
(3 -1.20297e-15 0)
(3 -2.24332e-15 0)
(3 -4.92807e-15 0)
(3 -2.69935e-15 0)
(3 1.60052e-16 0)
(3 -1.26493e-16 0)
(3 4.02713e-16 0)
(3 1.93612e-16 0)
(3 -3.56246e-16 0)
(3 -1.13586e-16 0)
(3 1.18749e-16 0)
(3 5.85998e-16 0)
(3 1.18749e-16 0)
(3 -7.48632e-16 0)
(3 -2.12715e-15 0)
(3 -2.92741e-15 0)
(3 -1.37077e-15 0)
(3 -1.2546e-15 0)
(3 -2.01098e-15 0)
(3 -2.71573e-15 0)
(3 -2.20201e-15 0)
(3 -1.46629e-15 0)
(3 -2.50405e-15 0)
(3 -3.65993e-15 0)
(3 -6.99584e-16 0)
(3 -4.28528e-16 0)
(3 5.78254e-16 0)
(3 1.06874e-15 0)
(3 -4.13039e-17 0)
(3 -3.22686e-16 0)
(3 -1.86384e-15 0)
(3 -1.59794e-15 0)
(3 -1.55148e-15 0)
(3 -1.69862e-15 0)
(3 -1.56438e-15 0)
(3 -1.06874e-15 0)
(3 -9.62896e-16 0)
(3 -2.47823e-16 0)
(3 -7.95099e-16 0)
(3 -2.41111e-15 0)
(3 -1.7709e-15 0)
(3 -1.24686e-15 0)
(3 8.23496e-16 0)
(3 1.59187e-15 0)
(3 -1.70378e-16 0)
(3 -4.49179e-16 0)
(3 -9.68059e-16 0)
(3 -6.0665e-16 0)
(3 -5.05972e-16 0)
(3 -5.42113e-17 0)
(3 -3.84642e-16 0)
(3 -4.54342e-16 0)
(3 -1.12295e-15 0)
(3 -7.69284e-16 0)
(3 1.52308e-16 0)
(3 -1.05067e-15 0)
(3 -3.49276e-15 0)
(3 -5.30238e-15 0)
(3 -3.63474e-15 0)
(3 -2.92999e-15 0)
(3 -2.53761e-15 0)
(3 -2.60731e-16 0)
(3 4.05552e-15 0)
(3 3.38723e-15 0)
(3 1.96193e-16 0)
(3 4.95646e-16 0)
(3 5.03391e-16 0)
(3 6.42791e-16 0)
(3 8.95777e-16 0)
(3 6.53117e-16 0)
(3 1.45596e-15 0)
(3 1.63925e-15 0)
(3 6.4021e-16 0)
(3 7.58958e-16 0)
(3 6.09232e-16 0)
(3 7.07329e-16 0)
(3 1.53341e-15 0)
(3 2.02389e-15 0)
(3 2.16071e-15 0)
(3 1.97226e-15 0)
(3 1.34754e-15 0)
(3 2.16329e-15 0)
(3 2.27429e-15 0)
(3 1.0471e-15 0)
(3 6.97003e-17 0)
(3 3.1236e-16 0)
(3 5.21461e-16 0)
(3 2.71057e-16 0)
(3 3.74316e-16 0)
(3 3.71735e-16 0)
(3 3.22686e-16 0)
(3 2.2459e-16 0)
(3 6.68606e-16 0)
(3 1.43015e-15 0)
(3 1.94903e-15 0)
(3 3.26559e-15 0)
(3 4.95646e-15 0)
(3 5.92452e-15 0)
(3 5.68961e-15 0)
(3 5.5786e-15 0)
(3 4.77834e-15 0)
(3 2.05229e-15 0)
(3 6.04069e-16 0)
(3 2.2976e-15 0)
(3 -2.73638e-16 0)
(3 -2.86545e-16 0)
(3 -4.05294e-16 0)
(3 -5.93743e-16 0)
(3 -7.7961e-16 0)
(3 -6.01487e-16 0)
(3 -1.16683e-15 0)
(3 -1.51017e-15 0)
(3 -1.34238e-15 0)
(3 -7.53795e-16 0)
(3 1.41982e-16 0)
(3 5.1888e-16 0)
(3 9.19011e-16 0)
(3 1.09972e-15 0)
(3 1.58245e-15 0)
(3 2.1891e-15 0)
(3 1.89481e-15 0)
(3 1.68055e-15 0)
(3 1.7993e-15 0)
(3 5.2301e-15 0)
(1.77949 1.39439 0)
(2.39028 0.151248 0)
(2.80743 -0.0183883 0)
(2.88317 -0.0205062 0)
(2.88794 -0.00303539 0)
(2.83433 0.00482499 0)
(2.81891 0.00345492 0)
(2.8132 -0.00154385 0)
(2.82125 -0.00886 0)
(2.84742 -0.016088 0)
(2.89412 -0.0171802 0)
(2.94767 -0.0115771 0)
(2.99063 -0.00527708 0)
(3.00849 -0.00209649 0)
(3.00994 -0.00141143 0)
(3.00971 -0.00114643 0)
(3.00842 -0.000531616 0)
(3.00534 -6.78891e-05 0)
(3.00184 3.68316e-05 0)
(3.00019 6.04688e-06 0)
(1.99854 0.682853 0)
(2.48275 -0.056855 0)
(2.81989 -0.127574 0)
(2.95312 -0.00866409 0)
(2.8951 0.0328396 0)
(2.85365 0.0453716 0)
(2.84545 0.0339207 0)
(2.84572 0.00198779 0)
(2.8566 -0.022988 0)
(2.87757 -0.0299714 0)
(2.91003 -0.0275391 0)
(2.94912 -0.0177689 0)
(2.98727 -0.00853593 0)
(3.00879 -0.00474759 0)
(3.0117 -0.00377926 0)
(3.01138 -0.00316273 0)
(3.00959 -0.00157557 0)
(3.00562 -0.000135151 0)
(3.00174 0.000154359 0)
(3.00016 2.31192e-05 0)
(1.98692 0.759707 0)
(2.4087 0.457488 0)
(2.76768 -0.0354169 0)
(2.97675 -0.00874261 0)
(2.92679 0.0194036 0)
(2.91414 0.0197394 0)
(2.91045 0.00952983 0)
(2.9216 -0.00804716 0)
(2.9356 -0.0317126 0)
(2.94584 -0.05646 0)
(2.95702 -0.0633189 0)
(2.97568 -0.044667 0)
(2.99987 -0.0195389 0)
(3.01375 -0.00685595 0)
(3.01497 -0.00460512 0)
(3.01399 -0.00378307 0)
(3.01066 -0.00160693 0)
(3.00551 0.000106816 0)
(3.00145 0.000244348 0)
(3.00011 2.54958e-05 0)
(1.91743 0.832152 0)
(2.44675 0.52539 0)
(2.76735 -0.0252369 0)
(2.9791 -0.0772226 0)
(2.98202 -0.0318194 0)
(2.97266 -0.0246969 0)
(2.97203 -0.0178448 0)
(2.99145 -0.0171646 0)
(3.01554 -0.0247461 0)
(3.0236 -0.0364631 0)
(3.01737 -0.046597 0)
(3.01664 -0.0436255 0)
(3.021 -0.023529 0)
(3.02164 -0.00934426 0)
(3.02022 -0.0071449 0)
(3.01763 -0.00509128 0)
(3.01154 -0.00141899 0)
(3.00493 0.000516649 0)
(3.00103 0.000300128 0)
(3.00006 2.04868e-05 0)
(1.88948 0.849454 0)
(2.39445 0.635327 0)
(2.71172 0.258792 0)
(2.91515 0.0961905 0)
(3.00416 0.0228598 0)
(2.99999 -0.00514946 0)
(3.00735 -0.0153796 0)
(3.03356 -0.0212105 0)
(3.06624 -0.0319876 0)
(3.07545 -0.0424644 0)
(3.05605 -0.0408237 0)
(3.03999 -0.0272465 0)
(3.03679 -0.0114762 0)
(3.03085 -0.00727602 0)
(3.0276 -0.00665888 0)
(3.02195 -0.00421204 0)
(3.01206 -0.000534483 0)
(3.0041 0.000851575 0)
(3.00064 0.00026298 0)
(3.00002 1.10767e-05 0)
(1.88896 0.880674 0)
(2.33347 0.703998 0)
(2.6756 0.393795 0)
(2.88647 0.129166 0)
(3.02561 0.070471 0)
(3.01336 -0.0641821 0)
(3.01518 -0.0816891 0)
(3.04077 -0.102312 0)
(3.08327 -0.115375 0)
(3.09858 -0.119064 0)
(3.07411 -0.0933561 0)
(3.04924 -0.0471608 0)
(3.04637 -0.0157138 0)
(3.03926 -0.00842044 0)
(3.03326 -0.00713976 0)
(3.02569 -0.00302605 0)
(3.01256 0.000560351 0)
(3.00343 0.000900531 0)
(3.00039 0.000163465 0)
(3.00001 3.79876e-06 0)
(1.85377 0.953811 0)
(2.25051 0.772995 0)
(2.57852 0.553377 0)
(2.83933 0.240081 0)
(2.98426 0.166597 0)
(2.99414 0.040486 0)
(2.99989 0.00680563 0)
(3.0487 -0.0470671 0)
(3.1109 -0.104407 0)
(3.1241 -0.137005 0)
(3.09501 -0.11664 0)
(3.06825 -0.0634747 0)
(3.06061 -0.0167316 0)
(3.04435 -0.00129443 0)
(3.03651 0.000336111 0)
(3.02621 0.00278358 0)
(3.01205 0.00338269 0)
(3.00286 0.00143782 0)
(3.00024 0.000134687 0)
(3 1.41313e-06 0)
(1.88002 0.993586 0)
(2.21969 0.805919 0)
(2.54704 0.601493 0)
(2.74043 0.402653 0)
(2.84525 0.316883 0)
(2.95642 0.112381 0)
(3.001 0.00685907 0)
(3.06471 -0.094551 0)
(3.11832 -0.143714 0)
(3.12774 -0.153668 0)
(3.10162 -0.126518 0)
(3.0797 -0.0739149 0)
(3.07141 -0.0258255 0)
(3.05395 -0.00767885 0)
(3.04564 -0.00241416 0)
(3.02879 0.00466407 0)
(3.01072 0.00531359 0)
(3.00195 0.00144757 0)
(3.00011 8.02874e-05 0)
(3 1.73138e-07 0)
(1.97207 0.954829 0)
(2.14471 0.897738 0)
(2.40292 0.770464 0)
(2.67397 0.491993 0)
(2.79916 0.314628 0)
(2.91284 0.179985 0)
(3.01173 0.0935852 0)
(3.05558 -0.00811387 0)
(3.09659 -0.0707699 0)
(3.10847 -0.0946675 0)
(3.0934 -0.0777357 0)
(3.07991 -0.0315796 0)
(3.0757 0.00469414 0)
(3.06128 0.0126365 0)
(3.04924 0.0142916 0)
(3.02845 0.0145157 0)
(3.00849 0.00733227 0)
(3.00102 0.00102623 0)
(3.00003 2.62735e-05 0)
(3 -2.4823e-07 0)
(2.08746 0.88976 0)
(2.15928 0.933304 0)
(2.37978 0.809813 0)
(2.58928 0.639268 0)
(2.75922 0.438023 0)
(2.89581 0.258481 0)
(3.0295 0.0946951 0)
(3.06884 -0.0367484 0)
(3.11159 -0.116973 0)
(3.12382 -0.140878 0)
(3.11798 -0.112212 0)
(3.1104 -0.0477392 0)
(3.0952 0.0112842 0)
(3.07396 0.0262487 0)
(3.05405 0.0300472 0)
(3.02377 0.0212672 0)
(3.00498 0.00585627 0)
(3.00032 0.000380915 0)
(3 3.37932e-06 0)
(3 -2.59424e-07 0)
(2.4543 0.711146 0)
(2.26756 0.957421 0)
(2.38006 0.881457 0)
(2.57089 0.710661 0)
(2.77395 0.482443 0)
(2.89981 0.339977 0)
(3.0303 0.181922 0)
(3.06883 0.0926819 0)
(3.10061 0.0503459 0)
(3.11676 0.03021 0)
(3.1219 0.0336566 0)
(3.12088 0.0519754 0)
(3.10281 0.0628684 0)
(3.08358 0.0626875 0)
(3.04791 0.0475066 0)
(3.01494 0.019208 0)
(3.00176 0.00244546 0)
(3.00005 5.93133e-05 0)
(3 -1.70725e-08 0)
(3 -1.57503e-07 0)
(2.91076 0.322233 0)
(2.42553 0.860553 0)
(2.44789 0.914406 0)
(2.60262 0.811499 0)
(2.77346 0.629695 0)
(2.92496 0.42092 0)
(3.01856 0.280851 0)
(3.08344 0.167974 0)
(3.1173 0.119478 0)
(3.13532 0.106386 0)
(3.14006 0.114986 0)
(3.12971 0.124455 0)
(3.1134 0.119428 0)
(3.07739 0.0904308 0)
(3.03317 0.0449708 0)
(3.00624 0.00942781 0)
(3.00033 0.00047391 0)
(3 3.2901e-06 0)
(3 -8.14206e-08 0)
(3 -5.82708e-08 0)
(3.01946 0.0543482 0)
(2.56981 0.679074 0)
(2.57012 0.877136 0)
(2.6445 0.866373 0)
(2.78804 0.752114 0)
(2.91738 0.594736 0)
(3.01139 0.435819 0)
(3.07036 0.325536 0)
(3.11092 0.27077 0)
(3.13374 0.246702 0)
(3.13715 0.229468 0)
(3.13107 0.20462 0)
(3.10408 0.151809 0)
(3.05712 0.086733 0)
(3.01614 0.0266086 0)
(3.00156 0.00245826 0)
(3.00003 3.8889e-05 0)
(3 4.38394e-08 0)
(3 -2.55308e-08 0)
(3 -9.91641e-09 0)
(3.00066 0.0028992 0)
(2.84981 0.337665 0)
(2.6156 0.74764 0)
(2.74045 0.831741 0)
(2.80332 0.812119 0)
(2.90733 0.722493 0)
(2.99314 0.608397 0)
(3.05621 0.499145 0)
(3.09984 0.421921 0)
(3.12459 0.364905 0)
(3.13193 0.304068 0)
(3.11729 0.226954 0)
(3.07863 0.14496 0)
(3.03101 0.0588217 0)
(3.00495 0.00889589 0)
(3.00019 0.000281903 0)
(3 1.09848e-06 0)
(3 -5.1778e-09 0)
(3 -3.55229e-09 0)
(3 -5.63966e-10 0)
(3 2.5694e-05 0)
(2.986 0.0717896 0)
(2.78251 0.487074 0)
(2.74187 0.731555 0)
(2.85322 0.760656 0)
(2.9071 0.729789 0)
(2.98028 0.66078 0)
(3.0405 0.581 0)
(3.08397 0.493949 0)
(3.10876 0.40248 0)
(3.11267 0.310106 0)
(3.08804 0.214591 0)
(3.04445 0.104372 0)
(3.01047 0.0225243 0)
(3.00068 0.00122519 0)
(3.00001 9.85416e-06 0)
(3 6.55765e-09 0)
(3 -1.34417e-09 0)
(3 -3.28556e-10 0)
(3 -1.05332e-11 0)
(3 3.71856e-08 0)
(2.99957 0.00427342 0)
(2.95884 0.145266 0)
(2.82704 0.500367 0)
(2.84547 0.678994 0)
(2.9339 0.67152 0)
(2.97638 0.636676 0)
(3.02715 0.571509 0)
(3.06707 0.487159 0)
(3.08527 0.390759 0)
(3.07738 0.279986 0)
(3.0479 0.149188 0)
(3.01491 0.0399438 0)
(3.00143 0.00314613 0)
(3.00002 4.3251e-05 0)
(3 6.32604e-08 0)
(3 -1.72609e-10 0)
(3 -1.0852e-10 0)
(3 -4.81258e-12 0)
(3 5.01299e-12 0)
(3 7.84663e-12 0)
(2.99999 4.82439e-05 0)
(2.99821 0.0117129 0)
(2.9612 0.150085 0)
(2.90592 0.404957 0)
(2.93755 0.539043 0)
(2.98203 0.535547 0)
(3.00692 0.4968 0)
(3.03436 0.416138 0)
(3.04666 0.301604 0)
(3.03622 0.164115 0)
(3.01388 0.0483339 0)
(3.00174 0.00475757 0)
(3.00004 9.45353e-05 0)
(3 2.30939e-07 0)
(3 4.46245e-11 0)
(3 -3.92126e-11 0)
(3 2.14593e-12 0)
(3 9.66666e-12 0)
(3 5.94932e-12 0)
(3 -1.17458e-15 0)
(3 8.0891e-08 0)
(2.99998 0.000163172 0)
(2.9984 0.00976116 0)
(2.9841 0.0807431 0)
(2.97408 0.205571 0)
(2.98997 0.262069 0)
(2.99686 0.250514 0)
(3.00853 0.197844 0)
(3.01306 0.111373 0)
(3.00692 0.0346615 0)
(3.00115 0.00397493 0)
(3.00004 0.000103592 0)
(3 3.72527e-07 0)
(3 1.26223e-10 0)
(3 5.52437e-12 0)
(3 8.79933e-12 0)
(3 1.13072e-11 0)
(3 1.00281e-11 0)
(3 5.17287e-12 0)
(3 -2.55568e-15 0)
(3 1.49869e-11 0)
(3 2.87199e-07 0)
(2.99999 8.64857e-05 0)
(2.99964 0.002483 0)
(2.99803 0.015171 0)
(2.99833 0.0304638 0)
(2.99903 0.030871 0)
(3.00032 0.0227932 0)
(3.00087 0.00909481 0)
(3.00028 0.00138497 0)
(3.00002 5.09148e-05 0)
(3 2.73833e-07 0)
(3 1.35182e-10 0)
(3 2.39204e-12 0)
(3 4.97542e-12 0)
(3 8.93816e-12 0)
(3 9.67212e-12 0)
(3 8.1606e-12 0)
(3 3.42001e-12 0)
(3 9.39663e-16 0)
(3 -3.9755e-15 0)
(3 4.17614e-11 0)
(3 6.77621e-08 0)
(3 7.12146e-06 0)
(2.99998 0.000108048 0)
(2.99996 0.000356339 0)
(2.99997 0.000396095 0)
(2.99999 0.000278416 0)
(3.00001 8.0777e-05 0)
(3 5.9093e-06 0)
(3 6.44439e-08 0)
(3 6.36276e-11 0)
(3 1.74044e-14 0)
(3 2.61299e-13 0)
(3 2.23784e-12 0)
(3 3.94041e-12 0)
(3 3.7921e-12 0)
(3 2.86807e-12 0)
(3 9.41674e-13 0)
)
;

boundaryField
{
    inlet
    {
        type            fixedValue;
        value           uniform (3 0 0);
    }
    outlet
    {
        type            inletOutlet;
        inletValue      uniform (3 0 0);
        value           nonuniform List<vector> 
20
(
(3.00019 6.04688e-06 0)
(3.00016 2.31192e-05 0)
(3.00011 2.54958e-05 0)
(3.00006 2.04868e-05 0)
(3.00002 1.10767e-05 0)
(3.00001 3.79876e-06 0)
(3 1.41313e-06 0)
(3 1.73138e-07 0)
(3 -2.4823e-07 0)
(3 -2.59424e-07 0)
(3 -1.57503e-07 0)
(3 -5.82708e-08 0)
(3 -9.91641e-09 0)
(3 -5.63966e-10 0)
(3 -1.05332e-11 0)
(3 5.01299e-12 0)
(3 5.94932e-12 0)
(3 5.17287e-12 0)
(3 3.42001e-12 0)
(3 9.41674e-13 0)
)
;
    }
    bottom
    {
        type            symmetryPlane;
    }
    top
    {
        type            symmetryPlane;
    }
    obstacle
    {
        type            slip;
    }
    defaultFaces
    {
        type            empty;
    }
}


// ************************************************************************* //
