/*--------------------------------*- C++ -*----------------------------------*\
  =========                 |
  \\      /  F ield         | OpenFOAM: The Open Source CFD Toolbox
   \\    /   O peration     | Website:  https://openfoam.org
    \\  /    A nd           | Version:  6.0
     \\/     M anipulation  |
\*---------------------------------------------------------------------------*/
FoamFile
{
    version     2.0;
    format      ascii;
    class       volScalarField;
    location    "1";
    object      p;
}
// * * * * * * * * * * * * * * * * * * * * * * * * * * * * * * * * * * * * * //

dimensions      [1 -1 -2 0 0 0 0];

internalField   nonuniform List<scalar> 
1200
(
1
1
1
1
1
1
1
1
1
1
1
5.21976
10.7766
11.0339
11.2355
11.4597
11.6623
11.8383
11.9619
12.0798
1
1
1
1
1
1
1
1
1
1
1
5.19676
10.7554
11.032
11.2352
11.4558
11.6542
11.8286
11.9524
12.0721
1
1
1
1
1
1
1
1
1
1
1
5.1505
10.7279
11.0224
11.2281
11.4456
11.64
11.8133
11.9368
12.0575
1
1
1
1
1
1
1
1
1
1
1
5.07772
10.6922
11.0062
11.2147
11.4318
11.6232
11.7938
11.9134
12.0343
1
1
1
1
1
1
1
1
1
1
1
4.97952
10.6488
10.9804
11.1878
11.4065
11.6002
11.7721
11.8862
12.0036
1
1
1
1
1
1
1
1
1
1
1
4.85661
10.5978
10.955
11.1594
11.3751
11.5691
11.7423
11.849
11.9627
1
1
1
1
1
1
1
1
1
1
1
4.71231
10.5339
10.9259
11.1252
11.3372
11.5313
11.7064
11.8042
11.9143
1
1
1
1
1
1
1
1
1
1
1
4.54775
10.4534
10.8938
11.0897
11.2954
11.4855
11.6613
11.7512
11.8571
1
1
1
1
1
1
1
1
1
1
1
4.36512
10.3579
10.8537
11.0463
11.2465
11.4298
11.6039
11.6863
11.7928
1
1
1
1
1
1
1
1
1
1
1
4.16647
10.2456
10.7995
10.9906
11.1895
11.3667
11.5392
11.6149
11.7164
1
1
1
1
1
1
1
1
1
1
1
3.9645
10.1171
10.7437
10.9301
11.1222
11.2919
11.46
11.5292
11.6315
1
1
1
1
1
1
1
1
1
1
1
3.73883
9.96229
10.6891
10.8582
11.0454
11.2082
11.3751
11.4377
11.5265
1
1
1
1
1
1
1
1
1
1
1
3.50844
9.78731
10.6419
10.7963
10.9636
11.1181
11.274
11.3259
11.4104
1
1
1
1
1
1
1
1
1
1
1
3.25387
9.59075
10.6118
10.7282
10.8826
11.0265
11.1636
11.2005
11.2616
1
1
1
1
1
1
1
1
1
1
1
2.94642
9.3553
10.5658
10.6664
10.8042
10.9353
11.0407
11.0465
11.0897
1
1
1
1
1
1
1
1
1
1
1
2.59932
9.09208
10.5148
10.5888
10.7182
10.8405
10.9086
10.8732
10.865
1
1
1
1
1
1
1
1
1
1
1
2.20778
8.83851
10.4984
10.5243
10.6296
10.7316
10.7546
10.6513
10.5847
1
1
1
1
1
1
1
1
1
1
1
1.8054
8.54297
10.45
10.436
10.5384
10.612
10.5774
10.3972
10.2073
1
1
1
1
1
1
1
1
1
1
1
1.48587
8.13111
10.4414
10.41
10.4722
10.4831
10.3871
10.0847
9.66498
1
1
1
1
1
1
1
1
1
1
1
1.24224
7.70492
10.3271
10.2669
10.3343
10.3233
10.1564
9.8045
9.22373
1
1
1
1
1
1
1
1
1
1
1
1.01823
6.26974
10.1068
10.1159
10.1356
10.0266
9.71847
9.06823
7.16182
1
1
1
1
1
1
1
1
1
1
1
1.00008
3.54586
9.15292
9.75753
9.66377
9.43828
8.94144
8.18578
6.52824
1
1
1
1
1
1
1
1
1
1
1
1
1.31852
7.24739
9.54613
9.25014
8.96613
8.45736
7.57867
6.24878
1
1
1
1
1
1
1
1
1
1
1
1
1.00644
3.90195
8.67951
8.876
8.52097
8.024
7.19287
6.16296
1
1
1
1
1
1
1
1
1
1
1
1
0.999995
1.34666
6.2821
8.74033
8.26444
7.7524
7.02259
6.17415
1
1
1
1
1
1
1
1
1
1
1
1
0.999999
1.00613
2.33124
7.34721
8.17163
7.57074
6.98489
6.27607
1
1
1
1
1
1
1
1
1
1
1
1
1
1.00001
1.07721
3.77931
7.40102
7.54722
6.95061
6.34048
1
1
1
1
1
1
1
1
1
1
1
1
1
1
1.00051
1.32777
4.53897
7.2452
7.02818
6.40149
1
1
1
1
1
1
1
1
1
1
1
1
1
1
1
1.0058
1.60079
4.87681
6.80865
6.58775
1
1
1
1
1
1
1
1
1
1
1
1
1
1
1
1.00001
1.01796
1.80559
4.79841
6.34618
1
1
1
1
1
1
1
1
1
1
1
1
1
1
1
1
1.00008
1.03215
1.84835
4.72017
1
1
1
1
1
1
1
1
1
1
1
1
1
1
1
1
1
1.00021
1.03546
2.0113
1
1
1
1
1
1
1
1
1
1
1
1
1
1
1
1
1
1
1.00023
1.05366
1
1
1
1
1
1
1
1
1
1
1
1
1
1
1
1
1
1
1
1.00022
1
1
1
1
1
1
1
1
1
1
1
1
1
1
1
1
1
1
1
1
1
1
1
1
1
1
1
1
1
1
1
1
1
1
1
1
1
1
1
1
1
1
1
1
1
1
1
1
1
1
1
1
1
1
1
1
1
1
1
1
1
1
1
1
1
1
1
1
1
1
1
1
1
1
1
1
1
1
1
1
1
1
1
1
1
1
1
1
1
1
1
1
1
1
1
1
1
1
1
1
1
1
1
1
1
1
1
1
1
1
1
1
1
1
1
1
1
1
1
1
1.04964
0.923653
1.08571
1.18844
1.18576
1.15567
1.09331
1.00857
0.923123
0.863745
0.850379
0.849407
0.851514
0.84847
0.84575
0.842058
0.842165
0.854266
0.875287
0.912138
2.68722
1.21141
1.1038
1.12546
1.12248
1.11172
1.06957
0.994539
0.921936
0.869943
0.857322
0.855281
0.854731
0.850619
0.846678
0.841854
0.837609
0.847962
0.86886
0.905164
3.47588
1.47921
1.11739
1.10172
1.12794
1.11302
1.06688
0.989269
0.930477
0.885523
0.86306
0.857476
0.852607
0.848074
0.844028
0.840007
0.838537
0.847359
0.865889
0.903119
3.94859
1.97538
1.31737
1.07692
1.0719
1.07591
1.0421
0.975881
0.921437
0.884225
0.861805
0.856115
0.851317
0.845497
0.838533
0.829463
0.826719
0.836681
0.855232
0.893451
4.30766
2.43161
1.51886
1.14175
1.04643
1.05583
1.01689
0.961268
0.913199
0.880872
0.862319
0.855321
0.849774
0.84355
0.836153
0.827865
0.837149
0.855646
0.873396
0.902958
4.56935
2.8301
1.81896
1.37107
1.08477
1.04061
0.974484
0.924059
0.906498
0.886973
0.864597
0.847732
0.840145
0.843117
0.858441
0.897723
0.977072
1.04998
1.0701
1.03133
4.79081
3.14249
2.12856
1.57077
1.17173
1.04869
0.958538
0.909671
0.911672
0.902276
0.876382
0.851463
0.855019
0.904434
1.02683
1.16674
1.30277
1.38462
1.41379
1.30712
4.99522
3.44754
2.40942
1.77578
1.32902
1.11729
0.981953
0.918364
0.90871
0.90441
0.88447
0.88526
0.987397
1.21737
1.43569
1.54352
1.5734
1.58955
1.60297
1.52918
5.16695
3.70492
2.67947
1.97894
1.48352
1.19878
1.03089
0.940183
0.90263
0.886801
0.898106
1.04553
1.3857
1.64863
1.71929
1.69968
1.63229
1.5913
1.58938
1.58038
5.43606
3.96615
2.89795
2.16492
1.63321
1.32269
1.13852
0.999088
0.908152
0.892458
1.04086
1.45273
1.77162
1.82161
1.75386
1.66838
1.5766
1.50952
1.49987
1.52973
5.44927
4.27784
3.1132
2.33293
1.8057
1.47195
1.24473
1.03753
0.935912
1.041
1.46138
1.82489
1.86524
1.79361
1.67516
1.56685
1.49314
1.41326
1.39348
1.474
5.13368
4.47675
3.32859
2.51357
1.99208
1.6174
1.34769
1.12096
1.13443
1.50622
1.9035
1.91811
1.81264
1.69607
1.54729
1.47592
1.44803
1.37414
1.35184
1.38418
4.18398
4.27119
3.53217
2.72631
2.17119
1.74683
1.4246
1.32516
1.66333
2.0998
2.08971
1.90727
1.72673
1.56103
1.44418
1.41731
1.32219
1.23738
1.19578
1.22505
3.23713
4.25774
3.73917
2.96884
2.38029
1.84161
1.59056
1.86845
2.47731
2.49174
2.21193
1.89835
1.66631
1.47774
1.40602
1.31224
1.21366
1.15521
1.11605
1.12444
2.0661
4.09856
3.90554
3.22378
2.54656
1.97706
2.11971
2.87805
2.98928
2.66676
2.21907
1.84128
1.60106
1.43905
1.33795
1.23235
1.12711
1.06315
1.02075
1.01338
1.29485
3.4983
3.92423
3.41842
2.63162
2.5107
3.30281
3.82735
3.42489
2.79859
2.25945
1.87271
1.58412
1.44243
1.32619
1.18783
1.07352
1.00436
0.962151
0.950047
1.0227
2.7497
3.77718
3.53759
3.07105
3.76229
4.54992
4.18574
3.48217
2.82857
2.33326
1.95653
1.65439
1.42586
1.26277
1.14609
1.05366
0.984121
0.931995
0.907593
1.00058
1.85351
3.36611
3.62893
4.58406
5.83758
5.46632
4.50074
3.5039
2.82574
2.34513
1.96197
1.66402
1.42756
1.25021
1.13112
1.04589
0.974098
0.91886
0.88275
1.00001
1.23387
2.65013
4.25418
6.60188
6.54668
5.75059
4.63474
3.73107
3.05707
2.50695
2.08123
1.75391
1.49971
1.30711
1.17492
1.0818
1.00355
0.934148
0.886198
1
1.02926
2.47307
6.45584
8.80481
7.56458
5.92046
4.67496
3.70781
2.92544
2.36079
1.94768
1.63531
1.39622
1.21495
1.09215
1.00955
0.940882
0.875286
0.830566
)
;

boundaryField
{
    inlet
    {
        type            fixedValue;
        value           uniform 1;
    }
    outlet
    {
        type            zeroGradient;
    }
    bottom
    {
        type            symmetryPlane;
    }
    top
    {
        type            symmetryPlane;
    }
    obstacle
    {
        type            zeroGradient;
    }
    defaultFaces
    {
        type            empty;
    }
}


// ************************************************************************* //
