/*--------------------------------*- C++ -*----------------------------------*\
  =========                 |
  \\      /  F ield         | OpenFOAM: The Open Source CFD Toolbox
   \\    /   O peration     | Website:  https://openfoam.org
    \\  /    A nd           | Version:  6.0
     \\/     M anipulation  |
\*---------------------------------------------------------------------------*/
FoamFile
{
    version     2.0;
    format      ascii;
    class       volScalarField;
    location    "1";
    object      rho;
}
// * * * * * * * * * * * * * * * * * * * * * * * * * * * * * * * * * * * * * //

dimensions      [1 -3 0 0 0 0 0];

internalField   nonuniform List<scalar> 
1200
(
1.39997
1.39997
1.39997
1.39997
1.39997
1.39997
1.39997
1.39997
1.39997
1.39997
1.39997
3.42605
5.41967
5.48169
5.55619
5.64314
5.70172
5.70856
5.67057
5.66192
1.39997
1.39997
1.39997
1.39997
1.39997
1.39997
1.39997
1.39997
1.39997
1.39997
1.39997
3.41265
5.40885
5.48043
5.55608
5.64169
5.69854
5.70465
5.66688
5.65905
1.39997
1.39997
1.39997
1.39997
1.39997
1.39997
1.39997
1.39997
1.39997
1.39997
1.39997
3.38778
5.39339
5.47558
5.5531
5.63752
5.69253
5.69788
5.66022
5.65323
1.39997
1.39997
1.39997
1.39997
1.39997
1.39997
1.39997
1.39997
1.39997
1.39997
1.39997
3.35421
5.37718
5.4679
5.54708
5.63138
5.68498
5.68892
5.65023
5.6438
1.39997
1.39997
1.39997
1.39997
1.39997
1.39997
1.39997
1.39997
1.39997
1.39997
1.39997
3.3142
5.36456
5.45755
5.53588
5.62072
5.67481
5.6788
5.63838
5.63126
1.39997
1.39997
1.39997
1.39997
1.39997
1.39997
1.39997
1.39997
1.39997
1.39997
1.39997
3.2663
5.35578
5.44883
5.52435
5.60767
5.66163
5.66572
5.62286
5.6148
1.39997
1.39997
1.39997
1.39997
1.39997
1.39997
1.39997
1.39997
1.39997
1.39997
1.39997
3.20838
5.34385
5.43951
5.51115
5.59253
5.64634
5.65086
5.60483
5.59565
1.39997
1.39997
1.39997
1.39997
1.39997
1.39997
1.39997
1.39997
1.39997
1.39997
1.39997
3.13888
5.32228
5.42851
5.49789
5.57649
5.62877
5.63347
5.58439
5.57355
1.39997
1.39997
1.39997
1.39997
1.39997
1.39997
1.39997
1.39997
1.39997
1.39997
1.39997
3.05874
5.28904
5.41299
5.48192
5.55865
5.60867
5.61272
5.56041
5.54918
1.39997
1.39997
1.39997
1.39997
1.39997
1.39997
1.39997
1.39997
1.39997
1.39997
1.39997
2.96939
5.24312
5.38992
5.46158
5.53896
5.58716
5.59056
5.53478
5.52089
1.39997
1.39997
1.39997
1.39997
1.39997
1.39997
1.39997
1.39997
1.39997
1.39997
1.39997
2.87616
5.1844
5.36375
5.43968
5.5168
5.56296
5.56452
5.5049
5.48989
1.39997
1.39997
1.39997
1.39997
1.39997
1.39997
1.39997
1.39997
1.39997
1.39997
1.39997
2.76445
5.10876
5.33726
5.41454
5.49257
5.53716
5.5378
5.47353
5.45215
1.39997
1.39997
1.39997
1.39997
1.39997
1.39997
1.39997
1.39997
1.39997
1.39997
1.39997
2.64522
5.02223
5.31701
5.39458
5.46778
5.51061
5.50661
5.43559
5.41076
1.39997
1.39997
1.39997
1.39997
1.39997
1.39997
1.39997
1.39997
1.39997
1.39997
1.39997
2.51553
4.93475
5.311
5.37628
5.44541
5.48503
5.47317
5.3933
5.35829
1.39997
1.39997
1.39997
1.39997
1.39997
1.39997
1.39997
1.39997
1.39997
1.39997
1.39997
2.37246
4.86259
5.31072
5.36914
5.42948
5.46179
5.43628
5.34143
5.29794
1.39997
1.39997
1.39997
1.39997
1.39997
1.39997
1.39997
1.39997
1.39997
1.39997
1.39997
2.23551
4.8356
5.33012
5.36948
5.41906
5.44034
5.39717
5.28303
5.21916
1.39997
1.39997
1.39997
1.39997
1.39997
1.39997
1.39997
1.39997
1.39997
1.39997
1.39997
2.08459
4.85962
5.39103
5.38921
5.41532
5.41724
5.35129
5.20816
5.12169
1.39997
1.39997
1.39997
1.39997
1.39997
1.39997
1.39997
1.39997
1.39997
1.39997
1.39997
1.89922
4.85811
5.44909
5.40837
5.41565
5.39355
5.2966
5.12283
4.99604
1.39997
1.39997
1.39997
1.39997
1.39997
1.39997
1.39997
1.39997
1.39997
1.39997
1.39997
1.71438
4.7278
5.49864
5.44167
5.42227
5.36516
5.23593
5.0163
4.81315
1.39997
1.39997
1.39997
1.39997
1.39997
1.39997
1.39997
1.39997
1.39997
1.39997
1.39997
1.55477
4.51759
5.47088
5.40438
5.38584
5.31601
5.16092
4.91525
4.60931
1.39997
1.39997
1.39997
1.39997
1.39997
1.39997
1.39997
1.39997
1.39997
1.39997
1.39997
1.41436
3.8971
5.35299
5.31296
5.27893
5.18892
5.0102
4.66733
3.68768
1.39997
1.39997
1.39997
1.39997
1.39997
1.39997
1.39997
1.39997
1.39997
1.39997
1.39997
1.40004
2.73293
5.01012
5.13681
5.07099
4.95184
4.72244
4.37219
3.58382
1.39997
1.39997
1.39997
1.39997
1.39997
1.39997
1.39997
1.39997
1.39997
1.39997
1.39997
1.39997
1.62361
4.39142
5.09427
4.94409
4.79275
4.55774
4.17569
3.58653
1.39997
1.39997
1.39997
1.39997
1.39997
1.39997
1.39997
1.39997
1.39997
1.39997
1.39997
1.39997
1.40515
2.95893
4.89383
4.84054
4.66945
4.44051
4.0774
3.62357
1.39997
1.39997
1.39997
1.39997
1.39997
1.39997
1.39997
1.39997
1.39997
1.39997
1.39997
1.39997
1.39996
1.64328
4.04921
4.88039
4.65933
4.4179
4.08859
3.70193
1.39997
1.39997
1.39997
1.39997
1.39997
1.39997
1.39997
1.39997
1.39997
1.39997
1.39997
1.39997
1.39997
1.40502
2.22167
4.53666
4.70842
4.43812
4.16034
3.8248
1.39997
1.39997
1.39997
1.39997
1.39997
1.39997
1.39997
1.39997
1.39997
1.39997
1.39997
1.39997
1.39997
1.39998
1.4608
2.97378
4.56022
4.50624
4.22694
3.93266
1.39997
1.39997
1.39997
1.39997
1.39997
1.39997
1.39997
1.39997
1.39997
1.39997
1.39997
1.39997
1.39997
1.39997
1.40043
1.63506
3.37903
4.48779
4.36658
4.04454
1.39997
1.39997
1.39997
1.39997
1.39997
1.39997
1.39997
1.39997
1.39997
1.39997
1.39997
1.39997
1.39997
1.39997
1.39997
1.40492
1.81656
3.56024
4.35356
4.22918
1.39997
1.39997
1.39997
1.39997
1.39997
1.39997
1.39997
1.39997
1.39997
1.39997
1.39997
1.39997
1.39997
1.39997
1.39997
1.39998
1.4151
1.94949
3.5616
4.19368
1.39997
1.39997
1.39997
1.39997
1.39997
1.39997
1.39997
1.39997
1.39997
1.39997
1.39997
1.39997
1.39997
1.39997
1.39997
1.39997
1.40005
1.42695
1.98783
3.52249
1.39997
1.39997
1.39997
1.39997
1.39997
1.39997
1.39997
1.39997
1.39997
1.39997
1.39997
1.39997
1.39997
1.39997
1.39997
1.39997
1.39997
1.40017
1.42983
2.07311
1.39997
1.39997
1.39997
1.39997
1.39997
1.39997
1.39997
1.39997
1.39997
1.39997
1.39997
1.39997
1.39997
1.39997
1.39997
1.39997
1.39997
1.39997
1.40019
1.44411
1.39997
1.39997
1.39997
1.39997
1.39997
1.39997
1.39997
1.39997
1.39997
1.39997
1.39997
1.39997
1.39997
1.39997
1.39997
1.39997
1.39997
1.39997
1.39997
1.40017
1.39997
1.39997
1.39997
1.39997
1.39997
1.39997
1.39997
1.39997
1.39997
1.39997
1.39997
1.39997
1.39997
1.39997
1.39997
1.39997
1.39997
1.39997
1.39997
1.39997
1.39997
1.39997
1.39997
1.39997
1.39997
1.39997
1.39997
1.39997
1.39997
1.39997
1.39997
1.39997
1.39997
1.39997
1.39997
1.39997
1.39997
1.39997
1.39997
1.39997
1.39997
1.39997
1.39997
1.39997
1.39997
1.39997
1.39997
1.39997
1.39997
1.39997
1.39997
1.39997
1.39997
1.39997
1.39997
1.39997
1.39997
1.39997
1.39997
1.39997
1.39997
1.39997
1.39997
1.39997
1.39997
1.39997
1.39997
1.39997
1.39997
1.39997
1.39997
1.39997
1.39997
1.39997
1.39997
1.39997
1.39997
1.39997
1.39997
1.39997
1.39997
1.39997
1.39997
1.39997
1.39997
1.39997
1.39997
1.39997
1.39997
1.39997
1.39997
1.39997
1.39997
1.39997
1.39997
1.39997
1.39997
1.39997
1.39997
1.39997
1.39997
1.39997
1.39997
1.39997
1.39997
1.39997
1.39997
1.39997
1.39997
1.39997
1.39997
1.39997
1.39997
1.39997
1.39997
1.39997
1.39997
1.39997
1.39997
1.39997
0.791945
0.733375
0.814653
0.863909
0.863743
0.851493
0.817328
0.762582
0.700741
0.654086
0.63982
0.639164
0.641052
0.638531
0.633003
0.624465
0.621792
0.630856
0.652083
0.741879
1.69467
0.936074
0.859523
0.861054
0.856769
0.851944
0.828998
0.778048
0.719224
0.672297
0.655591
0.653495
0.653357
0.649831
0.642804
0.631923
0.625531
0.633198
0.65376
0.741842
2.24733
1.16914
0.935259
0.909814
0.918416
0.910927
0.88655
0.830137
0.773822
0.723415
0.695329
0.688232
0.684059
0.67878
0.669277
0.654748
0.646137
0.651838
0.669984
0.756007
2.59446
1.54018
1.1276
0.953852
0.947285
0.953401
0.9383
0.886914
0.831035
0.783364
0.751791
0.740949
0.734175
0.725472
0.710867
0.689064
0.676578
0.681745
0.699259
0.783221
2.83921
1.86143
1.30961
1.04376
0.972999
0.987469
0.971074
0.926424
0.877723
0.838614
0.811795
0.798488
0.788852
0.777371
0.760272
0.736977
0.730353
0.740382
0.758883
0.840497
3.02225
2.12465
1.53415
1.23345
1.02784
1.00707
0.970209
0.929109
0.908295
0.885433
0.860704
0.840992
0.829381
0.822265
0.817401
0.827422
0.865198
0.916075
0.941528
0.990033
3.18242
2.3262
1.74344
1.38872
1.11306
1.03166
0.973048
0.937425
0.936412
0.926646
0.903077
0.877562
0.872491
0.896844
0.963242
1.04128
1.12785
1.20111
1.24163
1.25985
3.3351
2.51736
1.92447
1.5344
1.24085
1.09606
1.00209
0.960228
0.953386
0.950269
0.933713
0.926926
0.990121
1.13235
1.26792
1.33877
1.37396
1.41195
1.45938
1.51327
3.48219
2.68709
2.10025
1.67665
1.36003
1.16876
1.05387
0.990147
0.964416
0.955607
0.961251
1.05999
1.2794
1.45055
1.50013
1.50109
1.48142
1.49289
1.54101
1.64451
3.69103
2.87614
2.25949
1.81538
1.47825
1.27198
1.14953
1.0487
0.982997
0.971438
1.07625
1.35002
1.56178
1.60554
1.57317
1.53984
1.5126
1.51373
1.55611
1.67871
3.75606
3.10743
2.43004
1.9517
1.61536
1.39448
1.24162
1.09207
1.01667
1.09085
1.37267
1.62263
1.66611
1.63197
1.57717
1.53264
1.52008
1.50983
1.53813
1.68469
3.64109
3.26703
2.59894
2.09725
1.7638
1.51604
1.33168
1.16892
1.17263
1.41742
1.69046
1.72768
1.67946
1.62779
1.54926
1.52955
1.54889
1.53835
1.56099
1.65448
3.14515
3.16068
2.74228
2.25689
1.90509
1.62405
1.40182
1.32708
1.53428
1.81961
1.85456
1.76594
1.67591
1.5931
1.53245
1.54485
1.50397
1.4703
1.4723
1.54472
2.71871
3.17545
2.8816
2.42604
2.05964
1.7054
1.52916
1.69088
2.06284
2.1194
1.97802
1.80978
1.68711
1.58175
1.5546
1.50826
1.45318
1.42735
1.42483
1.46695
2.19385
3.18835
3.03619
2.60694
2.18579
1.81109
1.88731
2.31284
2.44209
2.28882
2.04929
1.83317
1.69248
1.59472
1.53857
1.47564
1.4061
1.36452
1.34664
1.36703
1.67857
3.0191
3.09579
2.775
2.2767
2.16962
2.60828
2.93838
2.75924
2.45121
2.1559
1.92047
1.72807
1.63662
1.56172
1.46388
1.37947
1.32674
1.29716
1.30815
1.42293
2.65394
3.09136
2.91699
2.58234
2.92844
3.40107
3.25939
2.92392
2.5742
2.28164
2.03756
1.82489
1.65523
1.53323
1.4454
1.37422
1.31777
1.27116
1.26661
1.40055
2.1055
2.98711
3.07139
3.52805
4.16528
4.04126
3.5871
3.04842
2.64367
2.33722
2.07564
1.85824
1.6749
1.53338
1.43899
1.37159
1.31171
1.2605
1.24128
1.39998
1.62051
2.62687
3.55973
4.78622
4.7924
4.39347
3.78782
3.24943
2.82723
2.46882
2.17642
1.93705
1.74037
1.58599
1.48044
1.4062
1.3407
1.27587
1.24456
1.39997
1.42895
2.56301
4.97263
6.04014
5.4255
4.5623
3.85732
3.26113
2.75582
2.37627
2.08336
1.84765
1.65783
1.50946
1.40885
1.34133
1.28258
1.21952
1.18926
)
;

boundaryField
{
    inlet
    {
        type            calculated;
        value           uniform 1.39997;
    }
    outlet
    {
        type            calculated;
        value           nonuniform List<scalar> 
20
(
0.743184
0.743121
0.757249
0.78435
0.842229
0.994038
1.26472
1.51607
1.64565
1.67912
1.68407
1.65281
1.54393
1.46675
1.36705
1.30801
1.26652
1.24118
1.24443
1.18917
)
;
    }
    bottom
    {
        type            symmetryPlane;
    }
    top
    {
        type            symmetryPlane;
    }
    obstacle
    {
        type            calculated;
        value           nonuniform List<scalar> 
40
(
5.66192
5.65905
5.65323
5.6438
5.63126
5.6148
5.59565
5.57355
5.54918
5.52089
5.48989
5.45215
5.41076
5.35829
5.29794
5.21916
5.12169
4.99604
4.81315
4.60931
0.791945
0.733375
0.814653
0.863909
0.863743
0.851493
0.817328
0.762582
0.700741
0.654086
0.63982
0.639164
0.641052
0.638531
0.633003
0.624465
0.621792
0.630856
0.652083
0.741879
)
;
    }
    defaultFaces
    {
        type            empty;
    }
}


// ************************************************************************* //
