/*--------------------------------*- C++ -*----------------------------------*\
  =========                 |
  \\      /  F ield         | OpenFOAM: The Open Source CFD Toolbox
   \\    /   O peration     | Website:  https://openfoam.org
    \\  /    A nd           | Version:  6.0
     \\/     M anipulation  |
\*---------------------------------------------------------------------------*/
FoamFile
{
    version     2.0;
    format      ascii;
    class       volScalarField;
    location    "1";
    object      T;
}
// * * * * * * * * * * * * * * * * * * * * * * * * * * * * * * * * * * * * * //

dimensions      [0 0 0 1 0 0 0];

internalField   nonuniform List<scalar> 
1200
(
1
1
1
1
1
1
1
1
1
1
1
2.13293
2.78374
2.81793
2.83095
2.84296
2.86349
2.90324
2.95319
2.98685
1
1
1
1
1
1
1
1
1
1
1
2.13187
2.78382
2.8181
2.83094
2.84273
2.86309
2.90284
2.95278
2.98647
1
1
1
1
1
1
1
1
1
1
1
2.1284
2.78467
2.81815
2.83067
2.84229
2.86262
2.90253
2.95238
2.98593
1
1
1
1
1
1
1
1
1
1
1
2.11932
2.78376
2.81797
2.83037
2.84195
2.86231
2.9023
2.95181
2.98515
1
1
1
1
1
1
1
1
1
1
1
2.10343
2.77898
2.8167
2.82928
2.84105
2.86175
2.90213
2.95126
2.98419
1
1
1
1
1
1
1
1
1
1
1
2.08159
2.7702
2.81466
2.82799
2.83982
2.86071
2.90146
2.95015
2.98272
1
1
1
1
1
1
1
1
1
1
1
2.0562
2.75964
2.812
2.82607
2.83803
2.8591
2.9002
2.94843
2.98082
1
1
1
1
1
1
1
1
1
1
1
2.02834
2.74966
2.80941
2.82386
2.8357
2.85663
2.89795
2.94596
2.97828
1
1
1
1
1
1
1
1
1
1
1
1.99789
2.74165
2.80711
2.82099
2.83247
2.85297
2.89433
2.94232
2.97513
1
1
1
1
1
1
1
1
1
1
1
1.96435
2.73568
2.80504
2.81722
2.82815
2.84815
2.88961
2.93787
2.971
1
1
1
1
1
1
1
1
1
1
1
1.92972
2.73197
2.80416
2.81298
2.82243
2.84171
2.8832
2.93202
2.96614
1
1
1
1
1
1
1
1
1
1
1
1.89341
2.72999
2.80375
2.80746
2.81531
2.83379
2.87566
2.92543
2.95971
1
1
1
1
1
1
1
1
1
1
1
1.85682
2.72826
2.80202
2.80179
2.80712
2.82454
2.86625
2.91706
2.95231
1
1
1
1
1
1
1
1
1
1
1
1.81088
2.72086
2.79726
2.7936
2.79782
2.81433
2.85552
2.90738
2.94233
1
1
1
1
1
1
1
1
1
1
1
1.73865
2.69345
2.78527
2.7812
2.78582
2.80294
2.84324
2.89525
2.93043
1
1
1
1
1
1
1
1
1
1
1
1.6278
2.63228
2.76173
2.76079
2.76896
2.78961
2.82957
2.88133
2.91438
1
1
1
1
1
1
1
1
1
1
1
1.4827
2.54622
2.72627
2.73393
2.74796
2.77335
2.81354
2.86309
2.89324
1
1
1
1
1
1
1
1
1
1
1
1.33082
2.46184
2.68478
2.70138
2.72421
2.75448
2.79577
2.84134
2.86025
1
1
1
1
1
1
1
1
1
1
1
1.21336
2.40774
2.65842
2.67816
2.70381
2.73542
2.77728
2.81447
2.81119
1
1
1
1
1
1
1
1
1
1
1
1.11856
2.3877
2.64264
2.65957
2.68624
2.71864
2.75505
2.79253
2.80149
1
1
1
1
1
1
1
1
1
1
1
1.00787
2.2523
2.64323
2.66555
2.68795
2.70517
2.71557
2.72002
2.71887
1
1
1
1
1
1
1
1
1
1
1
1.00003
1.8164
2.55758
2.65928
2.66791
2.66836
2.65069
2.62107
2.55016
1
1
1
1
1
1
1
1
1
1
1
1
1.13691
2.31044
2.62339
2.61927
2.61902
2.59779
2.54087
2.43916
1
1
1
1
1
1
1
1
1
1
1
1
1.00273
1.84614
2.48293
2.5671
2.55471
2.52974
2.46966
2.38107
1
1
1
1
1
1
1
1
1
1
1
1
1
1.14727
2.17196
2.50721
2.48318
2.45662
2.4046
2.3349
1
1
1
1
1
1
1
1
1
1
1
1
1
1.00252
1.46902
2.26728
2.4297
2.38813
2.35044
2.29719
1
1
1
1
1
1
1
1
1
1
1
1
1
1
1.03235
1.77919
2.27208
2.34472
2.30205
2.25712
1
1
1
1
1
1
1
1
1
1
1
1
1
1
1.00018
1.13686
1.88055
2.26014
2.2533
2.2158
1
1
1
1
1
1
1
1
1
1
1
1
1
1
1
1.00225
1.23368
1.91768
2.18945
2.18072
1
1
1
1
1
1
1
1
1
1
1
1
1
1
1
1
1.00707
1.29663
1.88612
2.11854
1
1
1
1
1
1
1
1
1
1
1
1
1
1
1
1
1.00002
1.01263
1.30173
1.87597
1
1
1
1
1
1
1
1
1
1
1
1
1
1
1
1
1
1.00007
1.01384
1.35822
1
1
1
1
1
1
1
1
1
1
1
1
1
1
1
1
1
1
1.00007
1.02146
1
1
1
1
1
1
1
1
1
1
1
1
1
1
1
1
1
1
1
1.00008
1
1
1
1
1
1
1
1
1
1
1
1
1
1
1
1
1
1
1
1
1
1
1
1
1
1
1
1
1
1
1
1
1
1
1
1
1
1
1
1
1
1
1
1
1
1
1
1
1
1
1
1
1
1
1
1
1
1
1
1
1
1
1
1
1
1
1
1
1
1
1
1
1
1
1
1
1
1
1
1
1
1
1
1
1
1
1
1
1
1
1
1
1
1
1
1
1
1
1
1
1
1
1
1
1
1
1
1
1
1
1
1
1
1
1
1
1
1
1
1
1.85552
1.7632
1.86578
1.92587
1.9219
1.90008
1.87268
1.85156
1.84425
1.84871
1.86069
1.86047
1.85959
1.86026
1.87049
1.88779
1.89614
1.89575
1.87917
1.72126
2.21992
1.81176
1.79785
1.82987
1.83415
1.82685
1.80623
1.78951
1.79455
1.81154
1.83075
1.83225
1.83146
1.83254
1.84399
1.86505
1.87461
1.8748
1.86059
1.70818
2.16529
1.77125
1.6726
1.69526
1.71936
1.71056
1.68473
1.66833
1.68338
1.71368
1.73768
1.74424
1.74491
1.74914
1.76551
1.79609
1.81684
1.81989
1.80932
1.67239
2.13066
1.79555
1.63558
1.58059
1.58414
1.57986
1.55484
1.5404
1.55226
1.58022
1.60484
1.61757
1.62334
1.63159
1.65139
1.68522
1.71064
1.71813
1.71224
1.597
2.12404
1.8288
1.62366
1.5314
1.50562
1.49689
1.46601
1.45262
1.45655
1.47052
1.4871
1.49961
1.50809
1.51915
1.5397
1.57262
1.60468
1.61792
1.61122
1.50401
2.11662
1.8648
1.65987
1.55616
1.47751
1.4466
1.40614
1.39236
1.3972
1.40241
1.4063
1.41119
1.41814
1.43547
1.47026
1.51892
1.58099
1.60461
1.59115
1.45837
2.10751
1.89124
1.70922
1.5835
1.47377
1.42308
1.37909
1.35852
1.36298
1.36315
1.35859
1.35833
1.37193
1.41182
1.49239
1.56865
1.61709
1.61386
1.59408
1.4525
2.09683
1.91727
1.75275
1.6202
1.49945
1.42708
1.37184
1.33893
1.33437
1.33241
1.32614
1.33704
1.39612
1.50508
1.58521
1.61407
1.60318
1.57606
1.53771
1.41468
2.0773
1.93025
1.78606
1.65237
1.52709
1.43593
1.36944
1.32933
1.31028
1.29917
1.308
1.38087
1.51629
1.59115
1.60449
1.58518
1.54254
1.49225
1.44391
1.34538
2.06184
1.93054
1.79555
1.66952
1.54672
1.45578
1.38656
1.33374
1.29338
1.28615
1.35393
1.50648
1.58807
1.58837
1.56076
1.51683
1.4592
1.39607
1.34938
1.27572
2.03107
1.92726
1.79355
1.67342
1.56493
1.47774
1.40348
1.33006
1.28876
1.33599
1.49045
1.57447
1.56729
1.53863
1.48695
1.43122
1.37515
1.31042
1.26831
1.22489
1.97386
1.91835
1.79301
1.67788
1.58116
1.49357
1.4168
1.34252
1.35436
1.48768
1.5764
1.55428
1.51099
1.45869
1.39818
1.35088
1.30881
1.25053
1.21239
1.17125
1.86237
1.89185
1.80322
1.69115
1.59551
1.50581
1.42272
1.39795
1.51772
1.61554
1.57748
1.51201
1.44242
1.37179
1.31933
1.2844
1.23077
1.17819
1.13703
1.11025
1.66692
1.87712
1.8166
1.7132
1.61793
1.51178
1.45618
1.54698
1.68126
1.64592
1.56553
1.46849
1.38271
1.30791
1.26616
1.21802
1.16922
1.13305
1.09658
1.0731
1.31844
1.79963
1.80082
1.73123
1.63104
1.52826
1.57235
1.74209
1.71365
1.63113
1.51595
1.40616
1.32435
1.26332
1.21742
1.16916
1.12219
1.09077
1.06117
1.0378
1.07994
1.62218
1.7746
1.72457
1.61821
1.62005
1.77275
1.82351
1.73771
1.59837
1.46721
1.36515
1.28335
1.23386
1.18883
1.13597
1.08948
1.0598
1.03841
1.01673
1.0062
1.45048
1.71055
1.69782
1.66491
1.7986
1.87287
1.79785
1.66726
1.53831
1.43164
1.3443
1.26917
1.20597
1.15302
1.11007
1.0734
1.04551
1.02643
1.00315
1.00016
1.23241
1.57759
1.65411
1.819
1.96204
1.89364
1.75654
1.60914
1.49639
1.40471
1.3233
1.25364
1.19322
1.14143
1.10044
1.06753
1.03964
1.02053
0.995607
1
1.06595
1.41236
1.67308
1.93105
1.91244
1.83241
1.71299
1.60748
1.51377
1.42159
1.33874
1.26761
1.20638
1.15379
1.11106
1.07701
1.04791
1.02501
0.996856
1
1.00838
1.35084
1.81754
2.04076
1.95193
1.81673
1.69672
1.59172
1.48614
1.39085
1.3088
1.23908
1.17906
1.12682
1.08527
1.05369
1.027
1.0048
0.977723
)
;

boundaryField
{
    inlet
    {
        type            fixedValue;
        value           uniform 1;
    }
    outlet
    {
        type            inletOutlet;
        inletValue      uniform 1;
        value           nonuniform List<scalar> 
20
(
1.71824
1.70524
1.66965
1.5947
1.50091
1.45249
1.44691
1.41207
1.34445
1.27542
1.22534
1.17243
1.11082
1.07325
1.03779
1.01684
1.00323
0.995687
0.996963
0.977794
)
;
    }
    bottom
    {
        type            symmetryPlane;
    }
    top
    {
        type            symmetryPlane;
    }
    obstacle
    {
        type            zeroGradient;
    }
    defaultFaces
    {
        type            empty;
    }
}


// ************************************************************************* //
