/*--------------------------------*- C++ -*----------------------------------*\
  =========                 |
  \\      /  F ield         | OpenFOAM: The Open Source CFD Toolbox
   \\    /   O peration     | Website:  https://openfoam.org
    \\  /    A nd           | Version:  6.0
     \\/     M anipulation  |
\*---------------------------------------------------------------------------*/
FoamFile
{
    version     2.0;
    format      ascii;
    class       volVectorField;
    location    "1";
    object      U;
}
// * * * * * * * * * * * * * * * * * * * * * * * * * * * * * * * * * * * * * //

dimensions      [0 1 -1 0 0 0 0];

internalField   nonuniform List<vector> 
1200
(
(3 1.5902e-15 0)
(3 -1.25977e-15 0)
(3 -2.32334e-15 0)
(3 -2.08584e-15 0)
(3 -8.46729e-16 0)
(3 3.61409e-16 0)
(3 9.29337e-17 0)
(3 -3.09779e-16 0)
(3 -2.27171e-16 0)
(3 -7.02166e-16 0)
(3 9.60315e-16 0)
(1.35265 0.00724199 0)
(0.704753 0.0078895 0)
(0.621807 0.0129651 0)
(0.537331 0.0145036 0)
(0.447413 0.0143037 0)
(0.361731 0.0137105 0)
(0.268828 0.0144872 0)
(0.172608 0.0162188 0)
(0.0684103 0.0199643 0)
(3 5.67928e-16 0)
(3 -1.0326e-16 0)
(3 -3.71735e-15 0)
(3 -2.72605e-15 0)
(3 -1.94128e-15 0)
(3 2.40595e-15 0)
(3 3.51083e-16 0)
(3 -1.05325e-15 0)
(3 -7.84773e-16 0)
(3 -8.15751e-16 0)
(3 1.36303e-15 0)
(1.34928 0.0255388 0)
(0.696556 0.024213 0)
(0.611025 0.036317 0)
(0.526279 0.0406287 0)
(0.43752 0.0407964 0)
(0.353835 0.0402675 0)
(0.263364 0.0434416 0)
(0.16959 0.0490108 0)
(0.0679219 0.0602876 0)
(3 7.22817e-17 0)
(3 1.44563e-16 0)
(3 -3.12877e-15 0)
(3 -8.67381e-16 0)
(3 -8.88033e-16 0)
(3 1.3527e-15 0)
(3 -1.50759e-15 0)
(3 -1.23912e-16 0)
(3 3.09779e-17 0)
(3 3.61409e-16 0)
(3 -6.29884e-16 0)
(1.35567 0.0475646 0)
(0.691479 0.0423971 0)
(0.602449 0.0613993 0)
(0.516049 0.0674754 0)
(0.426901 0.0666945 0)
(0.343713 0.0655254 0)
(0.254904 0.0712098 0)
(0.163602 0.0807697 0)
(0.0662287 0.0996927 0)
(3 1.75541e-16 0)
(3 4.44016e-16 0)
(3 5.98906e-16 0)
(3 -7.22817e-16 0)
(3 1.40433e-15 0)
(3 -1.30107e-15 0)
(3 -2.62279e-15 0)
(3 -9.49989e-16 0)
(3 2.78801e-16 0)
(3 1.52824e-15 0)
(3 -4.13039e-16 0)
(1.37329 0.0715379 0)
(0.691962 0.0619057 0)
(0.60154 0.0876661 0)
(0.514216 0.0957184 0)
(0.423653 0.093971 0)
(0.338191 0.0916773 0)
(0.247612 0.0988908 0)
(0.157002 0.111822 0)
(0.0641903 0.137952 0)
(3 5.16298e-17 0)
(3 1.44563e-15 0)
(3 4.70864e-15 0)
(3 2.56084e-15 0)
(3 -7.64121e-16 0)
(3 -3.17007e-15 0)
(3 -4.02713e-16 0)
(3 -1.30107e-15 0)
(3 6.50536e-16 0)
(3 2.73638e-15 0)
(3 -2.54019e-15 0)
(1.40202 0.0945403 0)
(0.697884 0.0814049 0)
(0.608371 0.11322 0)
(0.521856 0.123442 0)
(0.430537 0.121389 0)
(0.341695 0.119098 0)
(0.246233 0.128096 0)
(0.152547 0.143039 0)
(0.0621973 0.175003 0)
(3 2.06519e-17 0)
(3 1.01194e-15 0)
(3 4.17169e-15 0)
(3 3.66572e-15 0)
(3 1.77607e-15 0)
(3 -2.17878e-15 0)
(3 2.83964e-15 0)
(3 4.20267e-15 0)
(3 8.00262e-15 0)
(3 5.53472e-15 0)
(3 -4.49179e-15 0)
(1.43961 0.114918 0)
(0.706227 0.0997661 0)
(0.616165 0.138206 0)
(0.526663 0.152028 0)
(0.431276 0.150451 0)
(0.339043 0.147817 0)
(0.241302 0.158077 0)
(0.146886 0.174239 0)
(0.0599455 0.210867 0)
(3 1.0326e-16 0)
(3 5.78254e-16 0)
(3 -3.20105e-16 0)
(3 1.10488e-15 0)
(3 -5.16298e-17 0)
(3 -2.00324e-15 0)
(3 -1.52824e-15 0)
(3 8.46729e-16 0)
(3 2.51954e-15 0)
(3 9.60315e-16 0)
(3 -2.29236e-15 0)
(1.48273 0.1335 0)
(0.713324 0.11804 0)
(0.621957 0.16332 0)
(0.531127 0.181265 0)
(0.434129 0.18054 0)
(0.339881 0.177776 0)
(0.239711 0.189046 0)
(0.14363 0.205454 0)
(0.0588356 0.245656 0)
(3 6.19558e-17 0)
(3 4.13039e-16 0)
(3 -1.87933e-15 0)
(3 -3.39724e-15 0)
(3 -5.11135e-15 0)
(3 -4.08908e-15 0)
(3 -1.28042e-15 0)
(3 -1.89998e-15 0)
(3 -5.82384e-15 0)
(3 -3.85158e-15 0)
(3 -2.76736e-15 0)
(1.53077 0.151835 0)
(0.718664 0.137042 0)
(0.625133 0.18854 0)
(0.533459 0.210767 0)
(0.435677 0.211135 0)
(0.341155 0.208411 0)
(0.240476 0.220832 0)
(0.143067 0.237111 0)
(0.0582171 0.279975 0)
(3 -6.81514e-16 0)
(3 -1.18749e-15 0)
(3 -1.73476e-15 0)
(3 -1.61085e-15 0)
(3 -1.29075e-15 0)
(3 -3.35594e-15 0)
(3 -2.78801e-15 0)
(3 -3.05649e-15 0)
(3 -7.73415e-15 0)
(3 -8.50859e-15 0)
(3 -5.62765e-15 0)
(1.58512 0.17052 0)
(0.723184 0.157632 0)
(0.623668 0.214872 0)
(0.531005 0.240557 0)
(0.435016 0.24132 0)
(0.343664 0.238579 0)
(0.245138 0.252612 0)
(0.146978 0.269255 0)
(0.0607043 0.314823 0)
(3 -1.34238e-16 0)
(3 -2.57117e-15 0)
(3 -1.42498e-15 0)
(3 -4.44016e-16 0)
(3 6.09232e-16 0)
(3 -3.61409e-16 0)
(3 -2.02389e-15 0)
(3 -2.19943e-15 0)
(3 -3.35594e-15 0)
(3 -4.37821e-15 0)
(3 -2.71573e-15 0)
(1.64783 0.188198 0)
(0.728891 0.180931 0)
(0.618874 0.242728 0)
(0.526332 0.270397 0)
(0.434491 0.270404 0)
(0.347635 0.267556 0)
(0.251896 0.284251 0)
(0.152726 0.302639 0)
(0.0624641 0.351288 0)
(3 -2.89127e-16 0)
(3 -3.30431e-16 0)
(3 -1.89998e-15 0)
(3 -7.33143e-16 0)
(3 1.0326e-15 0)
(3 2.22008e-15 0)
(3 -2.06519e-17 0)
(3 -3.24235e-15 0)
(3 -3.44887e-15 0)
(3 -4.94614e-15 0)
(3 -1.65215e-15 0)
(1.71631 0.204503 0)
(0.735918 0.208601 0)
(0.613635 0.273668 0)
(0.520913 0.300362 0)
(0.43413 0.298078 0)
(0.354344 0.295086 0)
(0.263744 0.314955 0)
(0.163685 0.3369 0)
(0.0681985 0.389965 0)
(3 -3.92387e-16 0)
(3 6.81514e-16 0)
(3 -4.23365e-16 0)
(3 1.02227e-15 0)
(3 5.67928e-16 0)
(3 2.16845e-16 0)
(3 -9.29337e-16 0)
(3 -3.7793e-15 0)
(3 -6.63959e-15 0)
(3 -6.06134e-15 0)
(3 -1.77607e-15 0)
(1.78225 0.224524 0)
(0.734802 0.240535 0)
(0.599833 0.303348 0)
(0.51219 0.327452 0)
(0.43691 0.323935 0)
(0.365864 0.320666 0)
(0.278653 0.345825 0)
(0.174747 0.374362 0)
(0.0703378 0.43226 0)
(3 -5.16298e-17 0)
(3 -1.0326e-17 0)
(3 1.10488e-15 0)
(3 3.01518e-15 0)
(3 7.84773e-16 0)
(3 7.95099e-16 0)
(3 5.16298e-17 0)
(3 -2.08584e-15 0)
(3 -4.03745e-15 0)
(3 -1.54889e-16 0)
(3 -4.13039e-16 0)
(1.85187 0.248977 0)
(0.730205 0.276055 0)
(0.584333 0.329425 0)
(0.511443 0.352755 0)
(0.449288 0.34641 0)
(0.383377 0.344666 0)
(0.299208 0.376832 0)
(0.191785 0.413866 0)
(0.0783471 0.477854 0)
(3 2.06519e-17 0)
(3 1.85867e-16 0)
(3 1.12553e-15 0)
(3 1.89998e-15 0)
(3 4.80157e-15 0)
(3 4.5744e-15 0)
(3 7.95099e-16 0)
(3 -1.1152e-15 0)
(3 1.85867e-15 0)
(3 3.59344e-15 0)
(3 -6.4021e-16 0)
(1.94093 0.287815 0)
(0.735189 0.320493 0)
(0.585883 0.358199 0)
(0.527107 0.372807 0)
(0.471764 0.365264 0)
(0.406884 0.367833 0)
(0.322971 0.409463 0)
(0.208243 0.458621 0)
(0.0812282 0.529299 0)
(3 1.23912e-16 0)
(3 3.82061e-16 0)
(3 7.84773e-16 0)
(3 -3.40757e-16 0)
(3 1.73476e-15 0)
(3 4.21299e-15 0)
(3 4.60538e-15 0)
(3 4.5744e-15 0)
(3 3.47985e-15 0)
(3 8.26077e-16 0)
(3 4.65701e-15 0)
(2.07776 0.335314 0)
(0.768559 0.369749 0)
(0.613638 0.379697 0)
(0.560315 0.389602 0)
(0.505446 0.383158 0)
(0.436771 0.391304 0)
(0.35158 0.443877 0)
(0.230634 0.507023 0)
(0.0908789 0.585789 0)
(3 -2.58149e-16 0)
(3 -1.13586e-16 0)
(3 3.09779e-17 0)
(3 -2.34399e-15 0)
(3 -5.20429e-15 0)
(3 -1.30107e-15 0)
(3 7.64121e-16 0)
(3 1.08423e-15 0)
(3 9.39663e-16 0)
(3 7.12492e-16 0)
(3 3.12877e-15 0)
(2.295 0.368286 0)
(0.848514 0.409817 0)
(0.675174 0.400187 0)
(0.616929 0.406133 0)
(0.552563 0.402287 0)
(0.473613 0.416735 0)
(0.385258 0.480551 0)
(0.255032 0.562362 0)
(0.0951911 0.651516 0)
(3 3.09779e-16 0)
(3 9.70641e-16 0)
(3 1.44563e-16 0)
(3 -3.42822e-15 0)
(3 -4.76027e-15 0)
(3 -2.81899e-15 0)
(3 -5.57042e-30 0)
(3 -5.05972e-16 0)
(3 3.64507e-15 0)
(3 2.83964e-15 0)
(3 -1.70378e-15 0)
(2.59168 0.341005 0)
(0.967513 0.448101 0)
(0.764643 0.420736 0)
(0.691445 0.431013 0)
(0.610353 0.428299 0)
(0.516739 0.445571 0)
(0.423861 0.519906 0)
(0.288969 0.622332 0)
(0.109968 0.726607 0)
(3 8.05425e-16 0)
(3 7.33143e-16 0)
(3 -3.71735e-16 0)
(3 -2.13747e-15 0)
(3 2.00324e-15 0)
(3 1.28042e-15 0)
(3 7.84773e-16 0)
(3 1.70378e-15 0)
(3 1.38368e-15 0)
(3 1.0326e-17 0)
(3 -3.52115e-15 0)
(2.85383 0.229802 0)
(1.07056 0.450936 0)
(0.837344 0.438676 0)
(0.763139 0.448412 0)
(0.671148 0.454762 0)
(0.563959 0.478377 0)
(0.463194 0.563151 0)
(0.322523 0.692728 0)
(0.118435 0.820384 0)
(3 7.74447e-16 0)
(3 -4.23365e-16 0)
(3 -2.64345e-15 0)
(3 1.20814e-15 0)
(3 1.8277e-15 0)
(3 8.88033e-16 0)
(3 4.23365e-16 0)
(3 2.57117e-15 0)
(3 1.50759e-15 0)
(3 1.22879e-15 0)
(3 -2.89127e-16 0)
(2.97262 0.127275 0)
(1.10708 0.444978 0)
(0.849196 0.469972 0)
(0.79421 0.479785 0)
(0.714424 0.485517 0)
(0.60847 0.514434 0)
(0.503267 0.611949 0)
(0.37454 0.766917 0)
(0.141402 0.928495 0)
(3 9.29337e-17 0)
(3 4.3369e-16 0)
(3 1.32172e-15 0)
(3 4.5331e-15 0)
(3 2.82931e-15 0)
(3 1.80704e-15 0)
(3 3.54181e-15 0)
(3 3.67604e-15 0)
(3 2.34399e-15 0)
(3 2.26139e-15 0)
(3 -6.60862e-16 0)
(2.98109 0.0684512 0)
(1.13136 0.44882 0)
(0.837061 0.485099 0)
(0.788225 0.502872 0)
(0.716615 0.518643 0)
(0.633168 0.552061 0)
(0.550989 0.653377 0)
(0.449788 0.843049 0)
(0.211347 1.0991 0)
(3 -2.16845e-16 0)
(3 1.44563e-16 0)
(3 1.02227e-15 0)
(3 1.43531e-15 0)
(3 1.40949e-15 0)
(3 1.48436e-15 0)
(3 1.25977e-15 0)
(3 3.74316e-16 0)
(3 1.93612e-16 0)
(3 7.35725e-16 0)
(3 7.92518e-16 0)
(3.00797 0.0056251 0)
(1.29417 0.453799 0)
(0.824975 0.518586 0)
(0.770608 0.547903 0)
(0.715743 0.573036 0)
(0.662873 0.622039 0)
(0.621439 0.7435 0)
(0.645772 0.947598 0)
(0.716383 1.21671 0)
(3 2.83964e-17 0)
(3 1.2133e-16 0)
(3 -4.38853e-16 0)
(3 -7.35725e-16 0)
(3 -5.85998e-16 0)
(3 -7.22817e-17 0)
(3 -1.172e-15 0)
(3 -9.19011e-16 0)
(3 -1.17458e-15 0)
(3 -1.68055e-15 0)
(3 -1.84577e-15 0)
(3.00012 1.48209e-05 0)
(1.98991 0.489681 0)
(0.911606 0.626196 0)
(0.810847 0.631545 0)
(0.778749 0.657148 0)
(0.756389 0.704625 0)
(0.763651 0.800724 0)
(0.86357 0.943221 0)
(1.12296 1.06749 0)
(3 4.64668e-17 0)
(3 1.44563e-16 0)
(3 -6.60862e-16 0)
(3 -6.42791e-16 0)
(3 -4.54342e-16 0)
(3 -3.87224e-17 0)
(3 -6.66025e-16 0)
(3 1.29075e-17 0)
(3 1.04034e-15 0)
(3 -4.74994e-16 0)
(3 -1.18232e-15 0)
(3 2.30134e-08 0)
(3.02748 0.124653 0)
(1.26435 0.687704 0)
(0.940341 0.702052 0)
(0.909624 0.701794 0)
(0.886342 0.753295 0)
(0.921812 0.829946 0)
(1.04093 0.917579 0)
(1.27412 0.987691 0)
(3 -2.19427e-16 0)
(3 -7.35725e-16 0)
(3 -5.31787e-16 0)
(3 -6.32465e-16 0)
(3 -8.93196e-16 0)
(3 -9.96456e-16 0)
(3 -5.96324e-16 0)
(3 -1.01453e-15 0)
(3 1.00678e-16 0)
(3 2.81383e-16 0)
(3 2.04454e-15 0)
(3 1.91408e-12 0)
(3.01344 0.00148745 0)
(1.98776 0.608376 0)
(1.08006 0.805142 0)
(1.01779 0.804737 0)
(1.02872 0.806704 0)
(1.06808 0.834269 0)
(1.17784 0.877569 0)
(1.36062 0.913244 0)
(3 -1.0326e-17 0)
(3 -1.18232e-15 0)
(3 -8.88033e-16 0)
(3 -1.11004e-15 0)
(3 -1.71411e-15 0)
(3 -1.99033e-15 0)
(3 -2.86545e-16 0)
(3 -2.71057e-16 0)
(3 -4.07876e-16 0)
(3 -3.76898e-16 0)
(3 -2.83964e-16 0)
(3 -8.75125e-16 0)
(3.00005 8.87298e-06 0)
(2.99076 0.123546 0)
(1.5105 0.801974 0)
(1.11695 0.853207 0)
(1.16043 0.847941 0)
(1.19103 0.872721 0)
(1.27674 0.890292 0)
(1.41538 0.902067 0)
(3 2.19427e-16 0)
(3 7.43469e-16 0)
(3 6.24721e-16 0)
(3 5.57602e-16 0)
(3 8.67381e-16 0)
(3 6.86677e-16 0)
(3 8.38985e-16 0)
(3 9.39663e-16 0)
(3 1.36819e-15 0)
(3 1.32689e-15 0)
(3 1.14876e-15 0)
(3 1.59794e-15 0)
(3 -3.09981e-07 0)
(3.00541 0.0036301 0)
(2.61564 0.445959 0)
(1.36723 0.893698 0)
(1.22184 0.907437 0)
(1.29411 0.900275 0)
(1.359 0.897353 0)
(1.46349 0.89036 0)
(3 -1.54889e-16 0)
(3 5.29206e-16 0)
(3 1.45854e-15 0)
(3 2.10133e-15 0)
(3 2.40595e-15 0)
(3 1.77607e-15 0)
(3 1.283e-15 0)
(3 1.41982e-15 0)
(3 1.19523e-15 0)
(3 1.78639e-15 0)
(3 2.10392e-15 0)
(3 2.75703e-15 0)
(3 -2.55178e-08 0)
(3.00001 1.44371e-05 0)
(3.01705 0.0282272 0)
(2.1523 0.706126 0)
(1.34756 0.946496 0)
(1.34043 0.946221 0)
(1.42732 0.924564 0)
(1.50352 0.911514 0)
(3 -2.19427e-16 0)
(3 -7.04747e-16 0)
(3 -6.9184e-16 0)
(3 -4.77576e-16 0)
(3 -5.05972e-16 0)
(3 -3.76898e-16 0)
(3 -5.52439e-16 0)
(3 -5.05972e-16 0)
(3 -7.02166e-16 0)
(3 -5.26624e-16 0)
(3 -8.62218e-16 0)
(3 -1.02227e-15 0)
(3 -3.82777e-10 0)
(3 2.24544e-09 0)
(3.00029 0.000483479 0)
(2.9611 0.126541 0)
(1.96475 0.803361 0)
(1.44076 0.964083 0)
(1.4532 0.965884 0)
(1.53893 0.944239 0)
(3 1.18749e-16 0)
(3 2.19427e-16 0)
(3 1.18749e-16 0)
(3 -2.58149e-17 0)
(3 2.14264e-16 0)
(3 2.60731e-16 0)
(3 6.47954e-16 0)
(3 6.55699e-16 0)
(3 -6.45373e-17 0)
(3 1.88449e-16 0)
(3 -1.27526e-15 0)
(3 -2.59182e-15 0)
(3 -5.07361e-13 0)
(3 -1.06912e-12 0)
(3 3.71908e-07 0)
(3.00096 0.00425725 0)
(2.86133 0.229809 0)
(1.91657 0.853932 0)
(1.54144 0.979912 0)
(1.55726 0.979251 0)
(3 1.18749e-16 0)
(3 1.31656e-16 0)
(3 4.00131e-16 0)
(3 7.48632e-17 0)
(3 1.39401e-16 0)
(3 -1.39401e-16 0)
(3 4.18202e-16 0)
(3 3.20105e-16 0)
(3 1.16167e-16 0)
(3 -8.77707e-17 0)
(3 1.18749e-16 0)
(3 -2.14264e-16 0)
(3 -1.9103e-16 0)
(3 -9.30289e-13 0)
(3 4.89472e-11 0)
(3 1.03761e-05 0)
(2.99987 0.0111095 0)
(2.7732 0.306746 0)
(1.96184 0.871153 0)
(1.643 0.985795 0)
(3 -1.9103e-16 0)
(3 -4.23365e-16 0)
(3 -8.90614e-16 0)
(3 -6.60862e-16 0)
(3 -9.73222e-16 0)
(3 -1.29333e-15 0)
(3 -2.0084e-15 0)
(3 -3.0539e-15 0)
(3 -2.01356e-15 0)
(3 -2.54535e-15 0)
(3 -2.59698e-15 0)
(3 -2.40853e-15 0)
(3 -1.35528e-15 0)
(3 -1.5088e-13 0)
(3 -4.05506e-13 0)
(3 3.1428e-09 0)
(3 5.1479e-05 0)
(2.99505 0.020089 0)
(2.78669 0.318107 0)
(1.97187 0.890968 0)
(3 2.22008e-16 0)
(3 5.16298e-16 0)
(3 5.55021e-16 0)
(3 4.10457e-16 0)
(3 -1.47661e-15 0)
(3 -3.04616e-15 0)
(3 -3.96775e-15 0)
(3 -4.76027e-15 0)
(3 -3.90838e-15 0)
(3 -3.74058e-15 0)
(3 -2.95839e-15 0)
(3 -4.28528e-16 0)
(3 4.95646e-16 0)
(3 -4.7422e-15 0)
(3 -1.4565e-13 0)
(3 -6.04327e-15 0)
(3 2.92888e-08 0)
(2.99997 0.000143851 0)
(2.9971 0.0197041 0)
(2.72981 0.392133 0)
(3 2.14264e-16 0)
(3 5.21461e-16 0)
(3 7.17654e-16 0)
(3 1.00678e-16 0)
(3 3.82061e-16 0)
(3 -7.48632e-17 0)
(3 5.83417e-16 0)
(3 1.34754e-15 0)
(3 7.0991e-16 0)
(3 2.38013e-15 0)
(3 2.45242e-15 0)
(3 3.25526e-15 0)
(3 3.00227e-15 0)
(3 3.44629e-15 0)
(3 -3.01518e-15 0)
(3 -2.69146e-14 0)
(3 2.3181e-12 0)
(3 8.73508e-08 0)
(2.99997 0.000226426 0)
(3.01776 0.0146095 0)
(3 3.76898e-16 0)
(3 -3.09779e-17 0)
(3 -1.64183e-15 0)
(3 -1.32689e-15 0)
(3 1.66764e-15 0)
(3 3.29656e-15 0)
(3 6.07941e-15 0)
(3 5.90645e-15 0)
(3 5.07779e-15 0)
(3 3.97291e-15 0)
(3 2.37497e-15 0)
(3 6.97003e-16 0)
(3 -8.80288e-16 0)
(3 -1.13069e-15 0)
(3 -7.56377e-16 0)
(3 -5.80577e-15 0)
(3 -4.72671e-15 0)
(3 9.21002e-12 0)
(3 2.56981e-07 0)
(3.00038 7.65946e-05 0)
(3 1.60052e-16 0)
(3 -1.26493e-16 0)
(3 4.02713e-16 0)
(3 1.93612e-16 0)
(3 -3.56246e-16 0)
(3 -1.13586e-16 0)
(3 1.18749e-16 0)
(3 5.85998e-16 0)
(3 1.18749e-16 0)
(3 -7.43469e-16 0)
(3 -2.12973e-15 0)
(3 -2.93257e-15 0)
(3 -1.43531e-15 0)
(3 -1.22879e-15 0)
(3 -1.77865e-15 0)
(3 -3.04874e-15 0)
(3 -3.69928e-15 0)
(3 -1.96968e-15 0)
(3 4.2803e-11 0)
(3 3.92478e-08 0)
(3 -6.99584e-16 0)
(3 -4.28528e-16 0)
(3 5.78254e-16 0)
(3 1.06874e-15 0)
(3 -4.13039e-17 0)
(3 -3.22686e-16 0)
(3 -1.86384e-15 0)
(3 -1.60052e-15 0)
(3 -1.55148e-15 0)
(3 -1.69346e-15 0)
(3 -1.56438e-15 0)
(3 -1.06874e-15 0)
(3 -9.68059e-16 0)
(3 -2.45242e-16 0)
(3 -8.62218e-16 0)
(3 -2.01356e-15 0)
(3 -1.58245e-15 0)
(3 -1.82253e-15 0)
(3 3.37917e-15 0)
(3 1.84314e-12 0)
(3 -1.70378e-16 0)
(3 -4.49179e-16 0)
(3 -9.68059e-16 0)
(3 -6.0665e-16 0)
(3 -5.05972e-16 0)
(3 -5.42113e-17 0)
(3 -3.84642e-16 0)
(3 -4.54342e-16 0)
(3 -1.12295e-15 0)
(3 -7.69284e-16 0)
(3 1.52308e-16 0)
(3 -1.05067e-15 0)
(3 -3.49276e-15 0)
(3 -5.30238e-15 0)
(3 -3.65539e-15 0)
(3 -2.87578e-15 0)
(3 -2.43693e-15 0)
(3 -1.49726e-16 0)
(3 4.07617e-15 0)
(3 4.35773e-15 0)
(3 1.96193e-16 0)
(3 4.95646e-16 0)
(3 5.03391e-16 0)
(3 6.42791e-16 0)
(3 8.95777e-16 0)
(3 6.53117e-16 0)
(3 1.45596e-15 0)
(3 1.63925e-15 0)
(3 6.4021e-16 0)
(3 7.58958e-16 0)
(3 6.09232e-16 0)
(3 7.07329e-16 0)
(3 1.53341e-15 0)
(3 2.02389e-15 0)
(3 2.16071e-15 0)
(3 1.94644e-15 0)
(3 1.36561e-15 0)
(3 2.10392e-15 0)
(3 2.47565e-15 0)
(3 -1.76133e-16 0)
(3 6.97003e-17 0)
(3 3.1236e-16 0)
(3 5.21461e-16 0)
(3 2.71057e-16 0)
(3 3.74316e-16 0)
(3 3.71735e-16 0)
(3 3.22686e-16 0)
(3 2.2459e-16 0)
(3 6.68606e-16 0)
(3 1.43015e-15 0)
(3 1.94903e-15 0)
(3 3.26559e-15 0)
(3 4.95646e-15 0)
(3 5.92194e-15 0)
(3 5.68702e-15 0)
(3 5.55279e-15 0)
(3 4.75252e-15 0)
(3 2.02389e-15 0)
(3 6.04069e-16 0)
(3 1.86263e-15 0)
(3 -2.73638e-16 0)
(3 -2.86545e-16 0)
(3 -4.05294e-16 0)
(3 -5.93743e-16 0)
(3 -7.7961e-16 0)
(3 -6.01487e-16 0)
(3 -1.16683e-15 0)
(3 -1.51017e-15 0)
(3 -1.34238e-15 0)
(3 -7.53795e-16 0)
(3 1.41982e-16 0)
(3 5.1888e-16 0)
(3 9.19011e-16 0)
(3 1.0739e-15 0)
(3 1.67022e-15 0)
(3 2.13231e-15 0)
(3 1.90772e-15 0)
(3 1.60311e-15 0)
(3 1.88707e-15 0)
(3 3.82577e-15 0)
(1.66567 1.38467 0)
(2.10286 0.0873976 0)
(2.46079 -0.0350152 0)
(2.40999 -0.0150947 0)
(2.40374 -0.0165594 0)
(2.42606 -0.0308009 0)
(2.49476 -0.0362727 0)
(2.60455 -0.030778 0)
(2.71903 -0.0117876 0)
(2.78417 0.00314643 0)
(2.83619 0.00592671 0)
(2.8485 0.00387554 0)
(2.86592 -0.00212527 0)
(2.87692 -0.00371539 0)
(2.8886 -0.00318255 0)
(2.88331 0.00114448 0)
(2.85954 0.0055533 0)
(2.83412 0.00748838 0)
(2.79728 0.00817517 0)
(2.75954 0.00123901 0)
(1.84189 0.662266 0)
(2.26237 -0.11037 0)
(2.51967 -0.105643 0)
(2.4938 0.00163217 0)
(2.47205 0.0219526 0)
(2.50434 -0.0103387 0)
(2.55763 -0.0442015 0)
(2.65425 -0.0415086 0)
(2.74686 -0.00780919 0)
(2.80085 0.00524173 0)
(2.84736 0.00461892 0)
(2.86438 0.000641869 0)
(2.88145 -0.00891969 0)
(2.89404 -0.0108305 0)
(2.90602 -0.00784835 0)
(2.90008 0.00216983 0)
(2.87156 0.019987 0)
(2.84757 0.025506 0)
(2.81037 0.025166 0)
(2.77258 0.0116552 0)
(1.86686 0.700789 0)
(2.2759 0.32228 0)
(2.53156 -0.0494269 0)
(2.60449 -0.0201215 0)
(2.59596 -0.0242273 0)
(2.61877 -0.0476364 0)
(2.65355 -0.0533573 0)
(2.71991 -0.0380016 0)
(2.78125 -0.0271812 0)
(2.82836 -0.019268 0)
(2.87152 -0.00189149 0)
(2.90243 -0.000241397 0)
(2.91972 -0.0021121 0)
(2.93331 -0.00495709 0)
(2.94076 -0.00261255 0)
(2.93034 0.00804502 0)
(2.89821 0.0219403 0)
(2.8785 0.0303509 0)
(2.84537 0.0333349 0)
(2.81056 0.0084702 0)
(1.83449 0.745222 0)
(2.30194 0.399471 0)
(2.55453 -0.0692407 0)
(2.67397 -0.0933822 0)
(2.6727 -0.0876165 0)
(2.6843 -0.0891697 0)
(2.71101 -0.0736625 0)
(2.76639 -0.0452732 0)
(2.81253 -0.0194977 0)
(2.84926 -0.00546784 0)
(2.89567 0.0099228 0)
(2.93815 0.00804271 0)
(2.96105 0.00127987 0)
(2.97555 -0.00222207 0)
(2.97956 0.00344876 0)
(2.96507 0.0171394 0)
(2.93388 0.027207 0)
(2.91842 0.0321742 0)
(2.8918 0.0345212 0)
(2.86543 0.0130298 0)
(1.81269 0.762665 0)
(2.22794 0.517316 0)
(2.50188 0.15008 0)
(2.62401 0.021972 0)
(2.70222 -0.0628144 0)
(2.72291 -0.0815373 0)
(2.75281 -0.0699897 0)
(2.79684 -0.0325532 0)
(2.82905 -0.0221114 0)
(2.85481 -0.0233212 0)
(2.9067 -0.00475178 0)
(2.95617 0.00310505 0)
(2.98588 0.00566 0)
(3.00309 0.0087857 0)
(3.00559 0.0187711 0)
(2.98993 0.0326574 0)
(2.96478 0.0327052 0)
(2.9548 0.0291032 0)
(2.93723 0.0297788 0)
(2.92088 0.0101376 0)
(1.79238 0.787627 0)
(2.16238 0.583933 0)
(2.43335 0.297226 0)
(2.59108 0.0151973 0)
(2.70898 -0.0379307 0)
(2.73717 -0.119003 0)
(2.77688 -0.106881 0)
(2.80377 -0.065719 0)
(2.82905 -0.0295664 0)
(2.85388 -0.0247114 0)
(2.90426 -0.0195008 0)
(2.96223 -0.0110523 0)
(2.99816 -0.0042566 0)
(3.0129 0.00207881 0)
(3.01146 -0.0117984 0)
(2.9903 -0.0520898 0)
(2.97228 -0.113119 0)
(2.96833 -0.164594 0)
(2.97157 -0.161726 0)
(2.97999 -0.110264 0)
(1.77221 0.823337 0)
(2.10196 0.647054 0)
(2.37266 0.387087 0)
(2.54681 0.13626 0)
(2.64973 0.103957 0)
(2.74005 -0.0591424 0)
(2.77937 -0.10151 0)
(2.81296 -0.0510679 0)
(2.82758 -0.0302844 0)
(2.85193 -0.0137012 0)
(2.90457 -0.00852398 0)
(2.96812 -0.00314549 0)
(3.00132 -0.0108598 0)
(3.00133 -0.0563956 0)
(2.97912 -0.163206 0)
(2.95447 -0.275762 0)
(2.94137 -0.374486 0)
(2.95485 -0.424662 0)
(2.99786 -0.422193 0)
(3.03329 -0.314355 0)
(1.76875 0.854044 0)
(2.05285 0.701324 0)
(2.30534 0.483312 0)
(2.49647 0.259575 0)
(2.62784 0.15703 0)
(2.75287 -0.0449606 0)
(2.79721 -0.11464 0)
(2.81386 -0.0674147 0)
(2.83131 -0.0372236 0)
(2.87298 -0.00778876 0)
(2.91903 0.000410563 0)
(2.97165 -0.0184944 0)
(2.9743 -0.109826 0)
(2.93532 -0.301116 0)
(2.89952 -0.465131 0)
(2.89739 -0.520403 0)
(2.91563 -0.558031 0)
(2.95331 -0.555326 0)
(3.0243 -0.54863 0)
(3.07503 -0.444201 0)
(1.77133 0.889774 0)
(2.03554 0.733691 0)
(2.26664 0.549584 0)
(2.4599 0.357099 0)
(2.59964 0.253525 0)
(2.72411 0.0661155 0)
(2.77089 -0.000424844 0)
(2.79373 -0.0356536 0)
(2.84401 -0.0312491 0)
(2.89408 -0.026278 0)
(2.93496 -0.0440757 0)
(2.94295 -0.161942 0)
(2.88049 -0.41065 0)
(2.84409 -0.577634 0)
(2.8517 -0.636786 0)
(2.88375 -0.612349 0)
(2.93579 -0.598825 0)
(2.99198 -0.568685 0)
(3.06952 -0.553815 0)
(3.11497 -0.468063 0)
(1.7653 0.937227 0)
(2.01033 0.788746 0)
(2.24518 0.608966 0)
(2.42947 0.4497 0)
(2.56326 0.348266 0)
(2.70783 0.135302 0)
(2.77034 0.00253304 0)
(2.8132 -0.0362222 0)
(2.8578 -0.0358088 0)
(2.91241 -0.0733785 0)
(2.9077 -0.204239 0)
(2.83368 -0.48695 0)
(2.79765 -0.652112 0)
(2.82764 -0.693079 0)
(2.87167 -0.664744 0)
(2.9253 -0.617921 0)
(2.99844 -0.576714 0)
(3.05354 -0.548449 0)
(3.11765 -0.534834 0)
(3.14632 -0.466894 0)
(1.81571 0.934182 0)
(2.01263 0.816069 0)
(2.22789 0.675175 0)
(2.41464 0.521317 0)
(2.531 0.422423 0)
(2.67464 0.215545 0)
(2.74571 0.110187 0)
(2.8172 0.0541453 0)
(2.8761 -0.0241603 0)
(2.86621 -0.183258 0)
(2.79569 -0.518205 0)
(2.75902 -0.704893 0)
(2.78799 -0.753646 0)
(2.86087 -0.702103 0)
(2.91935 -0.647001 0)
(2.99523 -0.583055 0)
(3.06813 -0.548588 0)
(3.11299 -0.503398 0)
(3.15226 -0.47577 0)
(3.17021 -0.425177 0)
(1.88613 0.88078 0)
(1.98564 0.873233 0)
(2.22522 0.736642 0)
(2.39429 0.595414 0)
(2.51301 0.465676 0)
(2.64781 0.272129 0)
(2.74283 0.152534 0)
(2.79193 0.131374 0)
(2.80353 -0.0891419 0)
(2.77739 -0.445309 0)
(2.71782 -0.710584 0)
(2.73797 -0.801313 0)
(2.81646 -0.761663 0)
(2.89818 -0.688796 0)
(2.98163 -0.600154 0)
(3.06138 -0.533849 0)
(3.10806 -0.50605 0)
(3.13544 -0.44873 0)
(3.16854 -0.409005 0)
(3.17878 -0.347978 0)
(1.9359 0.83411 0)
(1.98703 0.915856 0)
(2.13978 0.815739 0)
(2.33346 0.659333 0)
(2.47665 0.51275 0)
(2.60599 0.352804 0)
(2.68399 0.285338 0)
(2.7425 0.0796723 0)
(2.69553 -0.280607 0)
(2.67093 -0.636476 0)
(2.70074 -0.791742 0)
(2.77842 -0.764966 0)
(2.88124 -0.711476 0)
(2.93966 -0.645262 0)
(3.03781 -0.550655 0)
(3.09995 -0.498742 0)
(3.13258 -0.457271 0)
(3.17062 -0.390138 0)
(3.18706 -0.329947 0)
(3.19109 -0.277804 0)
(2.29973 0.72253 0)
(2.00583 0.901314 0)
(2.1071 0.834534 0)
(2.27333 0.703341 0)
(2.42188 0.565532 0)
(2.58117 0.432443 0)
(2.65548 0.281424 0)
(2.62487 -0.0293999 0)
(2.6 -0.467002 0)
(2.65859 -0.679775 0)
(2.73744 -0.691943 0)
(2.85369 -0.676981 0)
(2.94869 -0.631341 0)
(3.00362 -0.578073 0)
(3.07575 -0.512997 0)
(3.11944 -0.452703 0)
(3.16205 -0.398549 0)
(3.21487 -0.337657 0)
(3.21994 -0.269702 0)
(3.21448 -0.228553 0)
(2.8638 0.444463 0)
(2.11403 0.900664 0)
(2.11768 0.870076 0)
(2.23959 0.75388 0)
(2.41741 0.598653 0)
(2.53397 0.528469 0)
(2.52406 0.184825 0)
(2.5279 -0.314939 0)
(2.5723 -0.610019 0)
(2.65405 -0.636736 0)
(2.78612 -0.628429 0)
(2.90268 -0.574172 0)
(2.97188 -0.534305 0)
(3.02643 -0.493259 0)
(3.07691 -0.452766 0)
(3.11864 -0.414714 0)
(3.16351 -0.383808 0)
(3.20984 -0.342703 0)
(3.23153 -0.288368 0)
(3.22285 -0.255157 0)
(3.12854 0.0844889 0)
(2.30305 0.846997 0)
(2.18854 0.862438 0)
(2.26109 0.784266 0)
(2.3582 0.730024 0)
(2.44838 0.428356 0)
(2.44985 -0.0865683 0)
(2.51882 -0.37219 0)
(2.59184 -0.460956 0)
(2.70135 -0.494717 0)
(2.81118 -0.485408 0)
(2.91422 -0.460173 0)
(2.99258 -0.44485 0)
(3.05599 -0.423541 0)
(3.09885 -0.391856 0)
(3.14292 -0.341164 0)
(3.1656 -0.318091 0)
(3.19297 -0.28929 0)
(3.23508 -0.231793 0)
(3.23762 -0.192698 0)
(3.02335 0.00991563 0)
(2.5739 0.655983 0)
(2.28086 0.8912 0)
(2.28893 0.862993 0)
(2.35925 0.698719 0)
(2.35531 0.130213 0)
(2.42859 -0.298693 0)
(2.45507 -0.447997 0)
(2.59775 -0.44327 0)
(2.72526 -0.407524 0)
(2.82151 -0.386598 0)
(2.90895 -0.376478 0)
(2.99661 -0.359237 0)
(3.04954 -0.325355 0)
(3.06961 -0.319914 0)
(3.09792 -0.289356 0)
(3.12627 -0.258365 0)
(3.15671 -0.246145 0)
(3.20378 -0.221715 0)
(3.21065 -0.187619 0)
(3.0003 0.000440812 0)
(2.87304 0.369122 0)
(2.39102 0.849434 0)
(2.33783 0.860843 0)
(2.30605 0.489308 0)
(2.34863 0.0464885 0)
(2.39188 -0.241924 0)
(2.47101 -0.297968 0)
(2.58289 -0.298541 0)
(2.69254 -0.277155 0)
(2.77608 -0.264649 0)
(2.8523 -0.254327 0)
(2.93597 -0.238217 0)
(3.02232 -0.227052 0)
(3.07899 -0.21983 0)
(3.10983 -0.201575 0)
(3.13624 -0.177519 0)
(3.16296 -0.16981 0)
(3.19913 -0.161842 0)
(3.19679 -0.142915 0)
(3 5.78008e-06 0)
(3.01513 0.101294 0)
(2.4957 0.794518 0)
(2.40349 0.650869 0)
(2.16603 0.0538907 0)
(2.25168 -0.1778 0)
(2.34173 -0.203158 0)
(2.47771 -0.194468 0)
(2.61393 -0.186517 0)
(2.72298 -0.176045 0)
(2.80533 -0.167342 0)
(2.87701 -0.156248 0)
(2.95581 -0.145632 0)
(3.03593 -0.140498 0)
(3.0979 -0.140578 0)
(3.13074 -0.129759 0)
(3.15682 -0.113692 0)
(3.18259 -0.106499 0)
(3.21401 -0.102139 0)
(3.20441 -0.0846815 0)
(3 1.50828e-08 0)
(2.99795 0.013718 0)
(2.67055 0.282982 0)
(2.44046 0.515249 0)
(2.17573 0.164391 0)
(2.23965 0.0075743 0)
(2.36497 -0.0534613 0)
(2.49725 -0.0562962 0)
(2.61534 -0.0535471 0)
(2.70252 -0.069474 0)
(2.76771 -0.0766425 0)
(2.83559 -0.0800728 0)
(2.91458 -0.0812942 0)
(2.99052 -0.0829042 0)
(3.04625 -0.0849439 0)
(3.08208 -0.0805195 0)
(3.11474 -0.0721424 0)
(3.14633 -0.0673906 0)
(3.18316 -0.0663656 0)
(3.1797 -0.0586611 0)
)
;

boundaryField
{
    inlet
    {
        type            fixedValue;
        value           uniform (3 0 0);
    }
    outlet
    {
        type            inletOutlet;
        inletValue      uniform (3 0 0);
        value           nonuniform List<vector> 
20
(
(2.75954 0.00123901 0)
(2.77258 0.0116552 0)
(2.81056 0.0084702 0)
(2.86543 0.0130298 0)
(2.92088 0.0101376 0)
(2.97999 -0.110264 0)
(3.03329 -0.314355 0)
(3.07503 -0.444201 0)
(3.11497 -0.468063 0)
(3.14632 -0.466894 0)
(3.17021 -0.425177 0)
(3.17878 -0.347978 0)
(3.19109 -0.277804 0)
(3.21448 -0.228553 0)
(3.22285 -0.255157 0)
(3.23762 -0.192698 0)
(3.21065 -0.187619 0)
(3.19679 -0.142915 0)
(3.20441 -0.0846815 0)
(3.1797 -0.0586611 0)
)
;
    }
    bottom
    {
        type            symmetryPlane;
    }
    top
    {
        type            symmetryPlane;
    }
    obstacle
    {
        type            slip;
    }
    defaultFaces
    {
        type            empty;
    }
}


// ************************************************************************* //
