/*--------------------------------*- C++ -*----------------------------------*\
  =========                 |
  \\      /  F ield         | OpenFOAM: The Open Source CFD Toolbox
   \\    /   O peration     | Website:  https://openfoam.org
    \\  /    A nd           | Version:  6.0
     \\/     M anipulation  |
\*---------------------------------------------------------------------------*/
FoamFile
{
    version     2.0;
    format      ascii;
    class       volScalarField;
    location    "4";
    object      p;
}
// * * * * * * * * * * * * * * * * * * * * * * * * * * * * * * * * * * * * * //

dimensions      [1 -1 -2 0 0 0 0];

internalField   nonuniform List<scalar> 
1200
(
1
1
1
1
1
1
1
1
1
1
5.48732
10.4989
10.7668
10.9878
11.2155
11.4188
11.602
11.7518
11.868
11.9543
1
1
1
1
1
1
1
1
1
1
5.46484
10.4885
10.7632
10.9833
11.2105
11.4129
11.5949
11.7435
11.8582
11.9437
1
1
1
1
1
1
1
1
1
1
5.41776
10.4737
10.7545
10.9743
11.2015
11.4031
11.5839
11.731
11.8431
11.9274
1
1
1
1
1
1
1
1
1
1
5.34726
10.4532
10.7426
10.9609
11.1876
11.388
11.5672
11.7122
11.8209
11.9027
1
1
1
1
1
1
1
1
1
1
5.2543
10.425
10.7267
10.9432
11.169
11.3677
11.5446
11.6871
11.7919
11.8725
1
1
1
1
1
1
1
1
1
1
5.13966
10.3881
10.7069
10.9208
11.1453
11.3418
11.5164
11.6563
11.7569
11.8341
1
1
1
1
1
1
1
1
1
1
5.00376
10.3416
10.6832
10.8941
11.1166
11.31
11.4808
11.617
11.7134
11.7906
1
1
1
1
1
1
1
1
1
1
4.84698
10.2846
10.6558
10.8632
11.0829
11.2726
11.4396
11.5723
11.664
11.7364
1
1
1
1
1
1
1
1
1
1
4.66988
10.2163
10.6249
10.8284
11.0445
11.2291
11.3901
11.517
11.6039
11.6768
1
1
1
1
1
1
1
1
1
1
4.47338
10.135
10.5907
10.7899
11.0014
11.1803
11.3352
11.4563
11.5369
11.6029
1
1
1
1
1
1
1
1
1
1
4.25866
10.039
10.5535
10.7481
10.9538
11.1253
11.2709
11.3826
11.4558
11.5221
1
1
1
1
1
1
1
1
1
1
4.02729
9.92602
10.5136
10.7032
10.9024
11.0657
11.2017
11.3037
11.3662
11.4207
1
1
1
1
1
1
1
1
1
1
3.78072
9.79333
10.4714
10.6553
10.8465
10.9995
11.1219
11.2083
11.2565
11.3091
1
1
1
1
1
1
1
1
1
1
3.52131
9.63853
10.4283
10.606
10.7887
10.9302
11.0372
11.1081
11.1357
11.1666
1
1
1
1
1
1
1
1
1
1
3.24984
9.45745
10.3827
10.5522
10.7254
10.854
10.9417
10.9878
10.9837
11.0048
1
1
1
1
1
1
1
1
1
1
2.97049
9.25026
10.3432
10.5021
10.6647
10.7769
10.8423
10.862
10.817
10.7921
1
1
1
1
1
1
1
1
1
1
2.68278
8.99934
10.2945
10.4416
10.5965
10.6927
10.7359
10.7143
10.5979
10.5314
1
1
1
1
1
1
1
1
1
1
2.39586
8.72624
10.2599
10.3875
10.5289
10.6037
10.6195
10.5532
10.3643
10.1761
1
1
1
1
1
1
1
1
1
1
2.08958
8.41511
10.2271
10.3351
10.4665
10.5274
10.5077
10.3789
10.0626
9.66702
1
1
1
1
1
1
1
1
1
1
1.73442
8.15366
10.2201
10.2956
10.4105
10.4508
10.3888
10.1939
9.80602
9.2493
1
1
1
1
1
1
1
1
1
1
1.09908
6.97745
10.1668
10.2141
10.2187
10.1837
10.0278
9.69167
9.07735
7.24358
1
1
1
1
1
1
1
1
1
1
1.00063
4.84313
9.58429
9.77483
9.69446
9.59958
9.36033
8.87973
8.18916
6.59059
1
1
1
1
1
1
1
1
1
1
0.999998
2.32277
8.30548
9.47382
9.37355
9.20785
8.89634
8.39557
7.61098
6.23988
1
1
1
1
1
1
1
1
1
1
1
1.10259
5.89854
9.14559
9.03086
8.8461
8.47544
8.00291
7.18315
6.16071
1
1
1
1
1
1
1
1
1
1
1
1.00043
2.56644
8.02391
8.77246
8.50626
8.14428
7.67657
6.97132
6.15937
1
1
1
1
1
1
1
1
1
1
1
0.999999
1.12099
5.34969
8.50247
8.28008
7.93463
7.47731
6.86305
6.18435
1
1
1
1
1
1
1
1
1
1
1
1
1.00078
1.85153
6.87186
8.14568
7.73096
7.32963
6.77591
6.20896
1
1
1
1
1
1
1
1
1
1
1
1
1
1.03661
3.56412
7.45017
7.61962
7.2262
6.73225
6.24415
1
1
1
1
1
1
1
1
1
1
1
1
1
1.00015
1.30501
4.89851
7.47765
7.17778
6.74792
6.30777
1
1
1
1
1
1
1
1
1
1
1
1
1
1
1.00559
1.77434
5.61068
7.10722
6.75391
6.33085
1
1
1
1
1
1
1
1
1
1
1
1
1
1
1.00002
1.03102
2.29564
5.85547
6.77942
6.39848
1
1
1
1
1
1
1
1
1
1
1
1
1
1
1
1.0002
1.08399
2.73452
5.83498
6.43121
1
1
1
1
1
1
1
1
1
1
1
1
1
1
1
1
1.00087
1.15373
2.98185
5.78223
1
1
1
1
1
1
1
1
1
1
1
1
1
1
1
1
1
1.00238
1.21009
3.44395
1
1
1
1
1
1
1
1
1
1
1
1
1
1
1
1
1
1.00001
1.0036
1.36245
1
1
1
1
1
1
1
1
1
1
1
1
1
1
1
1
1
1
1.00001
1.00839
1
1
1
1
1
1
1
1
1
1
1
1
1
1
1
1
1
1
1
0.999999
1
1
1
1
1
1
1
1
1
1
1
1
1
1
1
1
1
1
1
1
1
1
1
1
1
1
1
1
1
1
1
1
1
1
1
1
1
1
1
1
1
1
1
1
1
1
1
1
1
1
1
1
1
1
1
1
1
1
1
1
1.30984
0.653023
0.913396
1.2687
1.30982
3.05233
5.10831
5.32742
5.19856
5.01929
4.75419
4.47167
4.14744
3.87023
3.58765
3.33162
3.08249
2.85609
2.67199
2.37763
2.84821
1.00598
1.05127
1.16938
1.24152
2.87617
5.19969
5.36788
5.1689
4.96596
4.69962
4.42373
4.13459
3.85817
3.58449
3.32471
3.07352
2.85131
2.66579
2.37131
3.42932
1.41305
1.1458
1.10229
1.16861
2.79434
5.32675
5.4382
5.18951
4.97678
4.71437
4.43589
4.14669
3.86185
3.5769
3.31583
3.06614
2.84446
2.65475
2.36285
3.84176
2.0128
1.37595
1.0901
1.11706
2.51974
5.4817
5.53515
5.14441
4.90599
4.65711
4.39709
4.12034
3.83864
3.55754
3.30147
3.05423
2.83892
2.64699
2.35611
4.17388
2.49695
1.63868
1.12348
1.14895
2.23236
5.4061
5.63322
5.13813
4.86091
4.6128
4.35806
4.09113
3.81706
3.53838
3.28267
3.03958
2.82615
2.62352
2.33646
4.40953
2.93186
1.94471
1.28689
1.31013
2.09349
4.80794
5.66379
5.13346
4.80381
4.55361
4.30423
4.04397
3.77835
3.50643
3.25679
3.02027
2.81005
2.59933
2.32676
4.60272
3.31012
2.20218
1.49026
1.61328
2.364
3.85842
5.40612
5.15287
4.774
4.49937
4.24538
3.98791
3.73184
3.47181
3.22849
3.00118
2.78932
2.57222
2.32256
4.80446
3.60223
2.43019
1.68104
2.21233
2.87181
3.16082
4.64921
5.06621
4.72644
4.442
4.17943
3.92455
3.67728
3.4287
3.19289
2.97259
2.75784
2.54328
2.33491
5.00884
3.82942
2.59647
1.94122
3.01866
3.36185
3.16346
3.70301
4.68555
4.67827
4.37293
4.11221
3.86605
3.62646
3.3866
3.15474
2.94056
2.71496
2.52381
2.36738
5.1945
3.95894
2.72529
2.47326
3.89145
3.70582
3.26764
3.12029
3.94899
4.45523
4.28024
4.0384
3.80003
3.57177
3.34072
3.11068
2.8966
2.66122
2.50458
2.44878
5.40618
3.99386
2.91019
3.39109
4.6251
4.07455
3.4294
3.04411
3.24014
3.99938
4.15437
3.94824
3.73338
3.51828
3.29266
3.06569
2.83935
2.60827
2.5017
2.61133
5.55326
4.00054
3.24863
4.67673
5.09656
4.40997
3.64464
3.06583
2.86388
3.32317
3.87182
3.85149
3.67529
3.46909
3.27147
3.05342
2.81745
2.60116
2.54111
2.84513
5.62934
4.11657
3.90768
5.97968
5.47523
4.63442
3.84559
3.16993
2.79672
2.80911
3.34265
3.66374
3.57196
3.38955
3.17597
2.93895
2.72625
2.6094
2.64917
3.13033
5.38131
4.36426
5.13349
7.01225
5.837
4.81348
4.01234
3.32711
2.79209
2.56222
2.77622
3.34381
3.45752
3.30336
3.08827
2.85256
2.70046
2.67245
2.93103
3.43045
4.57436
4.57893
6.86897
7.70512
6.14952
4.97222
4.13726
3.45651
2.85652
2.50937
2.40725
2.83347
3.24903
3.15587
2.97256
2.78835
2.72525
2.84069
3.33004
3.59019
3.31878
5.14631
8.67322
8.09296
6.40446
5.13182
4.24332
3.56483
2.96568
2.4837
2.26833
2.3967
2.86279
2.99971
2.86851
2.75978
2.81111
3.19985
3.75556
3.69614
2.50585
6.00572
9.95221
8.34133
6.57781
5.26981
4.33495
3.63744
3.05371
2.52884
2.21857
2.12595
2.38007
2.77929
2.75212
2.80633
3.1134
3.60078
3.9014
3.75888
1.91283
6.81858
11.3145
8.5645
6.70919
5.38274
4.41003
3.68322
3.11605
2.60637
2.19651
1.98385
2.00807
2.39472
2.6458
2.97955
3.57683
3.98167
3.97962
3.78528
1.46955
7.42768
12.1662
8.68989
6.76246
5.45351
4.46709
3.71433
3.15102
2.67485
2.23471
1.89517
1.8045
2.04929
2.62142
3.30323
3.87084
4.07045
4.00793
3.79169
1.20402
8.22487
12.7782
8.87469
6.78776
5.47794
4.49306
3.7245
3.15898
2.71094
2.28287
1.83015
1.69668
1.83326
2.60843
3.67006
4.18998
4.17389
4.03838
3.76875
)
;

boundaryField
{
    inlet
    {
        type            fixedValue;
        value           uniform 1;
    }
    outlet
    {
        type            zeroGradient;
    }
    bottom
    {
        type            symmetryPlane;
    }
    top
    {
        type            symmetryPlane;
    }
    obstacle
    {
        type            zeroGradient;
    }
    defaultFaces
    {
        type            empty;
    }
}


// ************************************************************************* //
