/*--------------------------------*- C++ -*----------------------------------*\
  =========                 |
  \\      /  F ield         | OpenFOAM: The Open Source CFD Toolbox
   \\    /   O peration     | Website:  https://openfoam.org
    \\  /    A nd           | Version:  6.0
     \\/     M anipulation  |
\*---------------------------------------------------------------------------*/
FoamFile
{
    version     2.0;
    format      ascii;
    class       volScalarField;
    location    "4";
    object      rho;
}
// * * * * * * * * * * * * * * * * * * * * * * * * * * * * * * * * * * * * * //

dimensions      [1 -3 0 0 0 0 0];

internalField   nonuniform List<scalar> 
1200
(
1.39997
1.39997
1.39997
1.39997
1.39997
1.39997
1.39997
1.39997
1.39997
1.39997
3.56538
5.41778
5.50842
5.58545
5.66578
5.73813
5.80394
5.85762
5.89877
5.92928
1.39997
1.39997
1.39997
1.39997
1.39997
1.39997
1.39997
1.39997
1.39997
1.39997
3.55393
5.41273
5.50678
5.58374
5.66395
5.73599
5.80142
5.85468
5.89529
5.92551
1.39997
1.39997
1.39997
1.39997
1.39997
1.39997
1.39997
1.39997
1.39997
1.39997
3.53242
5.40513
5.50292
5.58021
5.66056
5.73242
5.79747
5.85021
5.88995
5.91977
1.39997
1.39997
1.39997
1.39997
1.39997
1.39997
1.39997
1.39997
1.39997
1.39997
3.50244
5.39622
5.49774
5.57486
5.65525
5.72681
5.79137
5.8435
5.88204
5.91101
1.39997
1.39997
1.39997
1.39997
1.39997
1.39997
1.39997
1.39997
1.39997
1.39997
3.46364
5.38634
5.49144
5.56786
5.64811
5.71922
5.78311
5.83442
5.87167
5.90026
1.39997
1.39997
1.39997
1.39997
1.39997
1.39997
1.39997
1.39997
1.39997
1.39997
3.41541
5.37467
5.48428
5.55939
5.63912
5.70956
5.77274
5.82327
5.8591
5.88656
1.39997
1.39997
1.39997
1.39997
1.39997
1.39997
1.39997
1.39997
1.39997
1.39997
3.35747
5.36005
5.47632
5.54973
5.6285
5.69778
5.7597
5.809
5.84346
5.87098
1.39997
1.39997
1.39997
1.39997
1.39997
1.39997
1.39997
1.39997
1.39997
1.39997
3.28989
5.3417
5.46748
5.53902
5.61638
5.68412
5.74465
5.79275
5.82563
5.85156
1.39997
1.39997
1.39997
1.39997
1.39997
1.39997
1.39997
1.39997
1.39997
1.39997
3.21296
5.31928
5.45774
5.52733
5.6029
5.66846
5.72666
5.7727
5.80395
5.83015
1.39997
1.39997
1.39997
1.39997
1.39997
1.39997
1.39997
1.39997
1.39997
1.39997
3.12703
5.29262
5.44711
5.51464
5.58809
5.65115
5.70684
5.7507
5.77975
5.80354
1.39997
1.39997
1.39997
1.39997
1.39997
1.39997
1.39997
1.39997
1.39997
1.39997
3.03247
5.26145
5.43581
5.50105
5.57195
5.6318
5.68374
5.72405
5.75046
5.77441
1.39997
1.39997
1.39997
1.39997
1.39997
1.39997
1.39997
1.39997
1.39997
1.39997
2.92968
5.22525
5.42409
5.48667
5.55467
5.61107
5.65906
5.69557
5.71804
5.73779
1.39997
1.39997
1.39997
1.39997
1.39997
1.39997
1.39997
1.39997
1.39997
1.39997
2.81889
5.18326
5.41229
5.47153
5.53596
5.58811
5.63069
5.66122
5.67832
5.69742
1.39997
1.39997
1.39997
1.39997
1.39997
1.39997
1.39997
1.39997
1.39997
1.39997
2.70084
5.13469
5.40096
5.45622
5.51678
5.56417
5.60065
5.62511
5.63452
5.64573
1.39997
1.39997
1.39997
1.39997
1.39997
1.39997
1.39997
1.39997
1.39997
1.39997
2.57552
5.07793
5.38955
5.43962
5.49581
5.53794
5.56671
5.58164
5.5793
5.58673
1.39997
1.39997
1.39997
1.39997
1.39997
1.39997
1.39997
1.39997
1.39997
1.39997
2.44472
5.01266
5.3814
5.42484
5.47611
5.51151
5.53141
5.53624
5.51842
5.50863
1.39997
1.39997
1.39997
1.39997
1.39997
1.39997
1.39997
1.39997
1.39997
1.39997
2.30652
4.93108
5.37252
5.40695
5.45374
5.48238
5.49372
5.4834
5.43822
5.41303
1.39997
1.39997
1.39997
1.39997
1.39997
1.39997
1.39997
1.39997
1.39997
1.39997
2.16492
4.84328
5.37338
5.39206
5.43086
5.45122
5.45238
5.42553
5.35395
5.28684
1.39997
1.39997
1.39997
1.39997
1.39997
1.39997
1.39997
1.39997
1.39997
1.39997
2.01802
4.75305
5.37827
5.37788
5.40837
5.4236
5.41277
5.36176
5.24322
5.10162
1.39997
1.39997
1.39997
1.39997
1.39997
1.39997
1.39997
1.39997
1.39997
1.39997
1.84653
4.69276
5.39228
5.36949
5.38916
5.39477
5.36884
5.29293
5.13902
4.9
1.39997
1.39997
1.39997
1.39997
1.39997
1.39997
1.39997
1.39997
1.39997
1.39997
1.47791
4.25802
5.40898
5.37016
5.33992
5.30846
5.24091
5.10736
4.84814
3.97617
1.39997
1.39997
1.39997
1.39997
1.39997
1.39997
1.39997
1.39997
1.39997
1.39997
1.40053
3.34521
5.23089
5.24401
5.19075
5.1283
5.0156
4.81132
4.51424
3.79359
1.39997
1.39997
1.39997
1.39997
1.39997
1.39997
1.39997
1.39997
1.39997
1.39997
1.39997
2.18163
4.8335
5.17435
5.11906
5.02928
4.87866
4.6546
4.31342
3.70984
1.39997
1.39997
1.39997
1.39997
1.39997
1.39997
1.39997
1.39997
1.39997
1.39997
1.39997
1.47957
3.84172
5.0828
5.0254
4.93204
4.75796
4.54066
4.17725
3.72106
1.39997
1.39997
1.39997
1.39997
1.39997
1.39997
1.39997
1.39997
1.39997
1.39997
1.39997
1.40029
2.33492
4.77338
4.95951
4.83721
4.66792
4.45132
4.13226
3.76007
1.39997
1.39997
1.39997
1.39997
1.39997
1.39997
1.39997
1.39997
1.39997
1.39997
1.39997
1.39997
1.49402
3.65249
4.89363
4.78576
4.6229
4.41046
4.12949
3.81255
1.39997
1.39997
1.39997
1.39997
1.39997
1.39997
1.39997
1.39997
1.39997
1.39997
1.39997
1.39997
1.40061
1.95793
4.37721
4.7855
4.59128
4.39661
4.13559
3.8652
1.39997
1.39997
1.39997
1.39997
1.39997
1.39997
1.39997
1.39997
1.39997
1.39997
1.39997
1.39997
1.39997
1.42958
2.88141
4.61768
4.59077
4.40151
4.163
3.92441
1.39997
1.39997
1.39997
1.39997
1.39997
1.39997
1.39997
1.39997
1.39997
1.39997
1.39997
1.39997
1.39997
1.40011
1.62432
3.5571
4.60049
4.44497
4.22645
4.00315
1.39997
1.39997
1.39997
1.39997
1.39997
1.39997
1.39997
1.39997
1.39997
1.39997
1.39997
1.39997
1.39997
1.39997
1.40474
1.93165
3.91181
4.47965
4.29839
4.07628
1.39997
1.39997
1.39997
1.39997
1.39997
1.39997
1.39997
1.39997
1.39997
1.39997
1.39997
1.39997
1.39997
1.39997
1.39999
1.42585
2.25232
4.05768
4.37641
4.17868
1.39997
1.39997
1.39997
1.39997
1.39997
1.39997
1.39997
1.39997
1.39997
1.39997
1.39997
1.39997
1.39997
1.39997
1.39997
1.40016
1.4685
2.51487
4.07457
4.25397
1.39997
1.39997
1.39997
1.39997
1.39997
1.39997
1.39997
1.39997
1.39997
1.39997
1.39997
1.39997
1.39997
1.39997
1.39997
1.39997
1.40078
1.52223
2.67602
4.03816
1.39997
1.39997
1.39997
1.39997
1.39997
1.39997
1.39997
1.39997
1.39997
1.39997
1.39997
1.39997
1.39997
1.39997
1.39997
1.39997
1.39997
1.40214
1.56616
2.87761
1.39997
1.39997
1.39997
1.39997
1.39997
1.39997
1.39997
1.39997
1.39997
1.39997
1.39997
1.39997
1.39997
1.39997
1.39997
1.39997
1.39997
1.39998
1.4032
1.66737
1.39997
1.39997
1.39997
1.39997
1.39997
1.39997
1.39997
1.39997
1.39997
1.39997
1.39997
1.39997
1.39997
1.39997
1.39997
1.39997
1.39997
1.39997
1.39998
1.40714
1.39997
1.39997
1.39997
1.39997
1.39997
1.39997
1.39997
1.39997
1.39997
1.39997
1.39997
1.39997
1.39997
1.39997
1.39997
1.39997
1.39997
1.39997
1.39997
1.39997
1.39997
1.39997
1.39997
1.39997
1.39997
1.39997
1.39997
1.39997
1.39997
1.39997
1.39997
1.39997
1.39997
1.39997
1.39997
1.39997
1.39997
1.39997
1.39997
1.39997
1.39997
1.39997
1.39997
1.39997
1.39997
1.39997
1.39997
1.39997
1.39997
1.39997
1.39997
1.39997
1.39997
1.39997
1.39997
1.39997
1.39997
1.39997
1.39997
1.39997
1.39997
1.39997
1.39997
1.39997
1.39997
1.39997
1.39997
1.39997
1.39997
1.39997
1.39997
1.39997
1.39997
1.39997
1.39997
1.39997
1.39997
1.39997
1.39997
1.39997
1.04885
0.581224
0.74579
0.956315
0.990569
1.71339
2.45677
2.60787
2.62321
2.61222
2.55348
2.4682
2.35274
2.24684
2.1332
2.02668
1.9199
1.82076
1.73941
1.60725
1.93602
0.842304
0.87556
0.94773
0.991644
1.68503
2.53536
2.67201
2.66092
2.63722
2.57223
2.48476
2.37868
2.26851
2.15397
2.04182
1.93065
1.83067
1.74664
1.61167
2.35729
1.17249
1.00187
0.979373
1.02034
1.77358
2.73352
2.84441
2.80422
2.76243
2.68527
2.58581
2.469
2.34452
2.21432
2.09178
1.97247
1.86553
1.77385
1.63223
2.63014
1.61147
1.21021
1.02317
1.0419
1.80465
3.01941
3.08514
2.9609
2.88688
2.79841
2.69404
2.57141
2.43782
2.29857
2.16783
2.03939
1.92644
1.82592
1.67332
2.83297
1.93718
1.42084
1.07573
1.09302
1.74585
3.17327
3.29245
3.09304
2.98775
2.889
2.77919
2.65554
2.52138
2.37903
2.24363
2.11124
1.99314
1.88082
1.71946
2.97647
2.20546
1.63594
1.20629
1.22293
1.6833
3.00961
3.39451
3.17274
3.0372
2.93252
2.82129
2.69843
2.56776
2.42909
2.29702
2.16727
2.04926
1.92956
1.76983
3.09862
2.42828
1.80615
1.35265
1.4277
1.8355
2.61614
3.33757
3.23349
3.07371
2.95576
2.83936
2.71515
2.58785
2.45535
2.32782
2.20423
2.08607
1.962
1.81356
3.22648
2.6009
1.9531
1.48334
1.77997
2.12668
2.30477
3.03799
3.24765
3.09794
2.97168
2.84729
2.7206
2.59447
2.46576
2.34164
2.22226
2.10222
1.97937
1.85516
3.36032
2.74315
2.06573
1.65318
2.21144
2.41626
2.33591
2.63217
3.12386
3.12587
2.98251
2.85412
2.72766
2.60114
2.4733
2.34886
2.23113
2.10367
1.99402
1.89768
3.49259
2.84047
2.16442
1.97701
2.69068
2.6208
2.4209
2.38197
2.80925
3.06664
2.97967
2.85746
2.73069
2.60559
2.47852
2.35176
2.23091
2.09582
2.00556
1.96303
3.64928
2.88948
2.28055
2.49804
3.1002
2.85002
2.54648
2.36421
2.47722
2.87812
2.95729
2.84785
2.72921
2.60855
2.4815
2.3529
2.22209
2.08731
2.0205
2.07667
3.78078
2.93496
2.48496
3.14693
3.37791
3.06369
2.69627
2.39359
2.29555
2.55021
2.84601
2.82586
2.72709
2.61124
2.49751
2.37104
2.23224
2.10513
2.05887
2.22405
3.89055
3.04541
2.87498
3.81323
3.60024
3.21635
2.82975
2.47561
2.27141
2.28393
2.58365
2.75052
2.6974
2.59352
2.47019
2.33061
2.20485
2.12687
2.14355
2.39864
3.80686
3.21913
3.55265
4.35108
3.81754
3.33484
2.93744
2.58042
2.2794
2.15491
2.28138
2.60039
2.65439
2.56677
2.44194
2.30103
2.21087
2.18154
2.32457
2.59126
3.39998
3.36003
4.36493
4.68855
3.98995
3.43436
3.02174
2.66765
2.33317
2.1372
2.08045
2.3326
2.56086
2.50426
2.39447
2.2841
2.23701
2.29947
2.56364
2.7094
2.6775
3.64386
5.11728
4.86791
4.12847
3.53589
3.09834
2.7461
2.41757
2.13477
2.00955
2.09026
2.36448
2.43344
2.35224
2.28221
2.30518
2.52093
2.82064
2.79376
2.25618
4.0373
5.6361
4.99513
4.24049
3.63619
3.17514
2.81109
2.48989
2.17931
1.99095
1.9359
2.0922
2.32356
2.29959
2.32359
2.4971
2.76004
2.92978
2.85634
2.01774
4.51751
6.28175
5.16966
4.35832
3.73672
3.25044
2.86472
2.54674
2.24511
1.98644
1.85211
1.86502
2.104
2.25155
2.44316
2.77697
2.99007
2.99489
2.89628
1.8009
4.96366
6.78129
5.32715
4.44975
3.81598
3.31046
2.90286
2.58179
2.29821
2.01953
1.79722
1.73235
1.89376
2.24994
2.64887
2.95672
3.0651
3.03236
2.91641
1.59827
5.39662
7.10142
5.45723
4.49279
3.8477
3.33627
2.91612
2.59158
2.32337
2.05491
1.75403
1.65971
1.75283
2.24562
2.86319
3.13443
3.12908
3.05864
2.91034
)
;

boundaryField
{
    inlet
    {
        type            calculated;
        value           uniform 1.39997;
    }
    outlet
    {
        type            calculated;
        value           nonuniform List<scalar> 
20
(
1.60729
1.61172
1.63231
1.67338
1.71951
1.76987
1.81359
1.8552
1.89779
1.96326
2.07697
2.22441
2.39892
2.59141
2.70941
2.79375
2.85637
2.89632
2.91645
2.91033
)
;
    }
    bottom
    {
        type            symmetryPlane;
    }
    top
    {
        type            symmetryPlane;
    }
    obstacle
    {
        type            calculated;
        value           nonuniform List<scalar> 
40
(
5.92928
5.92551
5.91977
5.91101
5.90026
5.88656
5.87098
5.85156
5.83015
5.80354
5.77441
5.73779
5.69742
5.64573
5.58673
5.50863
5.41303
5.28684
5.10162
4.9
1.04885
0.581224
0.74579
0.956315
0.990569
1.71339
2.45677
2.60787
2.62321
2.61222
2.55348
2.4682
2.35274
2.24684
2.1332
2.02668
1.9199
1.82076
1.73941
1.60725
)
;
    }
    defaultFaces
    {
        type            empty;
    }
}


// ************************************************************************* //
