/*--------------------------------*- C++ -*----------------------------------*\
  =========                 |
  \\      /  F ield         | OpenFOAM: The Open Source CFD Toolbox
   \\    /   O peration     | Website:  https://openfoam.org
    \\  /    A nd           | Version:  6.0
     \\/     M anipulation  |
\*---------------------------------------------------------------------------*/
FoamFile
{
    version     2.0;
    format      ascii;
    class       volScalarField;
    location    "4";
    object      T;
}
// * * * * * * * * * * * * * * * * * * * * * * * * * * * * * * * * * * * * * //

dimensions      [0 0 0 1 0 0 0];

internalField   nonuniform List<scalar> 
1200
(
1
1
1
1
1
1
1
1
1
1
2.15463
2.71295
2.7364
2.75404
2.77126
2.78591
2.79851
2.80867
2.81667
2.82255
1
1
1
1
1
1
1
1
1
1
2.15272
2.71278
2.73628
2.75375
2.77092
2.78551
2.79802
2.8081
2.81599
2.82182
1
1
1
1
1
1
1
1
1
1
2.14717
2.71277
2.736
2.75324
2.77035
2.78487
2.79728
2.80725
2.81496
2.82071
1
1
1
1
1
1
1
1
1
1
2.13737
2.71192
2.73554
2.75252
2.76951
2.7839
2.79618
2.80599
2.81346
2.81904
1
1
1
1
1
1
1
1
1
1
2.12374
2.70958
2.73463
2.75152
2.76841
2.78262
2.7947
2.80432
2.81151
2.81701
1
1
1
1
1
1
1
1
1
1
2.10673
2.70584
2.73313
2.75009
2.76694
2.78099
2.79288
2.80229
2.80918
2.81444
1
1
1
1
1
1
1
1
1
1
2.08643
2.70107
2.73106
2.74814
2.76503
2.77892
2.79056
2.7997
2.80628
2.81153
1
1
1
1
1
1
1
1
1
1
2.06257
2.69543
2.72846
2.74564
2.76259
2.77639
2.78784
2.79675
2.80299
2.8079
1
1
1
1
1
1
1
1
1
1
2.03479
2.6888
2.72542
2.74263
2.75963
2.77331
2.78449
2.79305
2.79896
2.80391
1
1
1
1
1
1
1
1
1
1
2.00273
2.68085
2.72194
2.73917
2.75615
2.76972
2.7807
2.78897
2.79446
2.79893
1
1
1
1
1
1
1
1
1
1
1.96605
2.6712
2.71801
2.73529
2.75217
2.76555
2.77614
2.78392
2.78896
2.79346
1
1
1
1
1
1
1
1
1
1
1.92447
2.65941
2.71358
2.73101
2.74778
2.76091
2.77114
2.77844
2.78283
2.78654
1
1
1
1
1
1
1
1
1
1
1.87765
2.64512
2.70859
2.72631
2.74293
2.75567
2.76526
2.77172
2.77524
2.77887
1
1
1
1
1
1
1
1
1
1
1.82526
2.62794
2.70309
2.72131
2.7378
2.75008
2.75893
2.76457
2.76681
2.76897
1
1
1
1
1
1
1
1
1
1
1.76651
2.60739
2.69696
2.71577
2.73211
2.74384
2.75173
2.75592
2.75605
2.75766
1
1
1
1
1
1
1
1
1
1
1.70105
2.58347
2.69079
2.71024
2.72643
2.73741
2.74413
2.74671
2.74416
2.74271
1
1
1
1
1
1
1
1
1
1
1.62834
2.55497
2.68255
2.70355
2.72011
2.73046
2.73585
2.73547
2.72822
2.72373
1
1
1
1
1
1
1
1
1
1
1.54931
2.52235
2.6731
2.69697
2.71414
2.72322
2.7267
2.72309
2.7101
2.69466
1
1
1
1
1
1
1
1
1
1
1.44961
2.4786
2.66212
2.69043
2.70928
2.7174
2.71774
2.70996
2.68676
2.65279
1
1
1
1
1
1
1
1
1
1
1.31497
2.43244
2.65339
2.68432
2.70438
2.71203
2.70897
2.69626
2.67135
2.6426
1
1
1
1
1
1
1
1
1
1
1.04112
2.29407
2.63142
2.66277
2.67903
2.68569
2.67867
2.65657
2.62121
2.55039
1
1
1
1
1
1
1
1
1
1
1.00023
2.02685
2.56509
2.60954
2.61464
2.62058
2.61268
2.58377
2.53965
2.43216
1
1
1
1
1
1
1
1
1
1
0.999999
1.49054
2.40559
2.56323
2.56349
2.56313
2.55288
2.52514
2.47023
2.35472
1
1
1
1
1
1
1
1
1
1
1
1.04327
2.1495
2.519
2.51581
2.51098
2.49379
2.46744
2.40737
2.31783
1
1
1
1
1
1
1
1
1
1
1
1.0002
1.53879
2.35331
2.47629
2.46185
2.44257
2.41433
2.36181
2.29329
1
1
1
1
1
1
1
1
1
1
1
1
1.05042
2.05049
2.43238
2.42216
2.40287
2.37345
2.32669
2.27089
1
1
1
1
1
1
1
1
1
1
1
1
1.00032
1.32389
2.19784
2.38297
2.35732
2.3339
2.29376
2.24887
1
1
1
1
1
1
1
1
1
1
1
1
1
1.01514
1.73167
2.25871
2.32363
2.2984
2.26398
2.2275
1
1
1
1
1
1
1
1
1
1
1
1
1
1.00006
1.12476
1.92791
2.27551
2.26068
2.23518
2.20594
1
1
1
1
1
1
1
1
1
1
1
1
1
1
1.00217
1.28596
2.00796
2.22113
2.19972
2.17428
1
1
1
1
1
1
1
1
1
1
1
1
1
1
1.00001
1.0123
1.4269
2.02024
2.16867
2.14366
1
1
1
1
1
1
1
1
1
1
1
1
1
1
1
1.00006
1.0334
1.52224
2.00482
2.11649
1
1
1
1
1
1
1
1
1
1
1
1
1
1
1
1
1.00029
1.06107
1.55996
2.00461
1
1
1
1
1
1
1
1
1
1
1
1
1
1
1
1
1
1.00082
1.08168
1.67549
1
1
1
1
1
1
1
1
1
1
1
1
1
1
1
1
1
1
1.00129
1.14395
1
1
1
1
1
1
1
1
1
1
1
1
1
1
1
1
1
1
1
1.00325
1
1
1
1
1
1
1
1
1
1
1
1
1
1
1
1
1
1
1
1
1
1
1
1
1
1
1
1
1
1
1
1
1
1
1
1
1
1
1
1
1
1
1
1
1
1
1
1
1
1
1
1
1
1
1
1
1
1
1
1
1
1
1
1
1
1
1
1
1
1
1
1
1
1
1
1
1
1
1
1
1.74833
1.57291
1.71459
1.85728
1.85116
2.49399
2.91092
2.8599
2.7744
2.68999
2.60653
2.53634
2.46788
2.41148
2.35449
2.30138
2.24772
2.19603
2.15055
2.071
2.05959
1.67202
1.68092
1.72738
1.75273
2.3896
2.87115
2.81244
2.71948
2.63618
2.55782
2.49243
2.4334
2.381
2.32973
2.27958
2.2287
2.18048
2.13668
2.05983
2.03663
1.68719
1.60108
1.57567
1.6034
2.2057
2.72809
2.67659
2.59079
2.52218
2.45784
2.40161
2.35125
2.306
2.26144
2.21919
2.17621
2.1346
2.0952
2.02662
2.04489
1.74863
1.59169
1.49154
1.50095
1.95471
2.54163
2.51173
2.43237
2.37912
2.32982
2.28496
2.24326
2.20442
2.16676
2.13207
2.09662
2.06308
2.02951
1.97122
2.06261
1.8045
1.61461
1.46211
1.4716
1.79009
2.38504
2.39528
2.32562
2.27767
2.2353
2.1953
2.15679
2.11938
2.0822
2.04831
2.01556
1.98507
1.95279
1.90232
2.074
1.86106
1.6642
1.49351
1.49979
1.74112
2.23649
2.33587
2.26514
2.21427
2.17387
2.13582
2.09805
2.05999
2.02088
1.98492
1.95098
1.91971
1.88591
1.84051
2.07953
1.90838
1.70694
1.5424
1.58194
1.80307
2.06474
2.26764
2.23098
2.17439
2.13108
2.09322
2.05622
2.01884
1.97952
1.94164
1.90614
1.87192
1.83539
1.79289
2.08465
1.93895
1.74194
1.58656
1.74002
1.89048
1.91995
2.14245
2.1839
2.13589
2.09265
2.05497
2.0195
1.98425
1.94669
1.9089
1.87266
1.83658
1.79882
1.762
2.08677
1.95435
1.75965
1.64389
1.91099
1.94785
1.89594
1.96952
2.09985
2.09524
2.05263
2.01707
1.98425
1.95181
1.91692
1.88029
1.84512
1.80677
1.77192
1.74648
2.08216
1.95122
1.76275
1.75137
2.02474
1.97956
1.88963
1.8339
1.96795
2.03388
2.01103
1.97855
1.9482
1.91909
1.88697
1.85174
1.81771
1.77764
1.74831
1.74639
2.07397
1.93505
1.78649
1.90046
2.08857
2.00148
1.88537
1.80257
1.83112
1.94537
1.96666
1.94091
1.91506
1.88821
1.8576
1.82408
1.78886
1.74938
1.73338
1.76041
2.05629
1.90825
1.83021
2.08053
2.11226
2.01516
1.89238
1.79315
1.74657
1.82429
1.90457
1.90808
1.88674
1.85989
1.83381
1.80288
1.76699
1.72984
1.72788
1.79092
2.02565
1.89238
1.90284
2.19535
2.12907
2.0172
1.90254
1.79261
1.72374
1.72188
1.81123
1.86479
1.85387
1.82966
1.79997
1.76539
1.73103
1.71758
1.73019
1.82702
1.97897
1.89797
2.02292
2.2562
2.14055
2.0207
1.91226
1.80508
1.71486
1.66458
1.70363
1.8002
1.82355
1.80172
1.77051
1.73552
1.70999
1.71501
1.7652
1.85336
1.88353
1.90783
2.20309
2.30069
2.1577
2.02685
1.91678
1.81396
1.714
1.64376
1.61988
1.70058
1.77618
1.76424
1.73796
1.70903
1.70552
1.72948
1.81849
1.85508
1.73527
1.97721
2.37279
2.32746
2.17176
2.03185
1.91732
1.81736
1.71737
1.62879
1.58025
1.60521
1.69501
1.72574
1.70723
1.69293
1.70723
1.777
1.864
1.85216
1.55489
2.08254
2.47206
2.3378
2.17162
2.02893
1.91135
1.81151
1.71698
1.6245
1.56003
1.5374
1.59259
1.67455
1.67546
1.69082
1.74549
1.82642
1.86425
1.84233
1.32718
2.11307
2.52159
2.31931
2.15511
2.01666
1.8994
1.79996
1.71292
1.62524
1.54802
1.49955
1.50735
1.59341
1.64511
1.70733
1.80321
1.86424
1.86028
1.82968
1.14238
2.09493
2.51167
2.2837
2.12759
2.00073
1.8891
1.79132
1.70863
1.6294
1.54913
1.47626
1.45828
1.51495
1.63112
1.74581
1.8328
1.85915
1.85037
1.82013
1.05463
2.13366
2.51908
2.27667
2.11509
1.99313
1.88538
1.78806
1.70648
1.6335
1.55527
1.46073
1.43115
1.46421
1.62615
1.79449
1.87143
1.86742
1.8484
1.8129
)
;

boundaryField
{
    inlet
    {
        type            fixedValue;
        value           uniform 1;
    }
    outlet
    {
        type            inletOutlet;
        inletValue      uniform 1;
        value           nonuniform List<scalar> 
20
(
2.07095
2.05976
2.02652
1.97115
1.90227
1.84047
1.79286
1.76197
1.74638
1.74619
1.76015
1.79063
1.8268
1.85325
1.85507
1.85216
1.84231
1.82966
1.82011
1.8129
)
;
    }
    bottom
    {
        type            symmetryPlane;
    }
    top
    {
        type            symmetryPlane;
    }
    obstacle
    {
        type            zeroGradient;
    }
    defaultFaces
    {
        type            empty;
    }
}


// ************************************************************************* //
