/*--------------------------------*- C++ -*----------------------------------*\
  =========                 |
  \\      /  F ield         | OpenFOAM: The Open Source CFD Toolbox
   \\    /   O peration     | Website:  https://openfoam.org
    \\  /    A nd           | Version:  6.0
     \\/     M anipulation  |
\*---------------------------------------------------------------------------*/
FoamFile
{
    version     2.0;
    format      ascii;
    class       volVectorField;
    location    "4";
    object      U;
}
// * * * * * * * * * * * * * * * * * * * * * * * * * * * * * * * * * * * * * //

dimensions      [0 1 -1 0 0 0 0];

internalField   nonuniform List<vector> 
1200
(
(3 1.5902e-15 0)
(3 -1.25977e-15 0)
(3 -2.32334e-15 0)
(3 -2.08584e-15 0)
(3 -8.46729e-16 0)
(3 3.61409e-16 0)
(3 8.26077e-17 0)
(3 -2.99453e-16 0)
(3 -1.96193e-16 0)
(3 -7.53795e-16 0)
(1.29379 0.00802279 0)
(0.720176 0.00838725 0)
(0.646136 0.00994184 0)
(0.576153 0.0108423 0)
(0.501883 0.0115675 0)
(0.425028 0.0123921 0)
(0.344249 0.0132949 0)
(0.257492 0.0147068 0)
(0.162419 0.016 0)
(0.0620384 0.0186448 0)
(3 5.67928e-16 0)
(3 -1.0326e-16 0)
(3 -3.71735e-15 0)
(3 -2.72605e-15 0)
(3 -1.94128e-15 0)
(3 2.40595e-15 0)
(3 3.51083e-16 0)
(3 -1.0739e-15 0)
(3 -6.9184e-16 0)
(3 -7.12492e-16 0)
(1.29256 0.0285429 0)
(0.715165 0.0258541 0)
(0.640141 0.0288603 0)
(0.570039 0.0317096 0)
(0.495622 0.0339957 0)
(0.418849 0.0366608 0)
(0.338653 0.0396479 0)
(0.253233 0.0442416 0)
(0.159862 0.0484445 0)
(0.0613916 0.0565692 0)
(3 7.22817e-17 0)
(3 1.44563e-16 0)
(3 -3.12877e-15 0)
(3 -8.67381e-16 0)
(3 -8.88033e-16 0)
(3 1.3527e-15 0)
(3 -1.51792e-15 0)
(3 -1.96193e-16 0)
(3 2.37497e-16 0)
(3 7.22817e-17 0)
(1.30309 0.0502206 0)
(0.715858 0.0440641 0)
(0.638675 0.048863 0)
(0.567394 0.053432 0)
(0.49177 0.0570762 0)
(0.413841 0.0612475 0)
(0.332791 0.0657952 0)
(0.247572 0.0730584 0)
(0.155561 0.0798624 0)
(0.0600268 0.0934064 0)
(3 1.75541e-16 0)
(3 4.44016e-16 0)
(3 5.98906e-16 0)
(3 -7.22817e-16 0)
(3 1.40433e-15 0)
(3 -1.30107e-15 0)
(3 -2.63312e-15 0)
(3 -9.39663e-16 0)
(3 2.27171e-16 0)
(3 1.80704e-15 0)
(1.3211 0.0710689 0)
(0.719318 0.0624675 0)
(0.640741 0.0689193 0)
(0.568946 0.0754086 0)
(0.492276 0.0806746 0)
(0.412888 0.0865916 0)
(0.330076 0.0926736 0)
(0.243637 0.102178 0)
(0.151484 0.110929 0)
(0.0582481 0.129305 0)
(3 5.16298e-17 0)
(3 1.44563e-15 0)
(3 4.70864e-15 0)
(3 2.56084e-15 0)
(3 -7.64121e-16 0)
(3 -3.17007e-15 0)
(3 -4.02713e-16 0)
(3 -1.25977e-15 0)
(3 4.95646e-16 0)
(3 3.94452e-15 0)
(1.34427 0.0913494 0)
(0.72319 0.0811022 0)
(0.643256 0.089096 0)
(0.571626 0.0974796 0)
(0.494752 0.10446 0)
(0.414743 0.112327 0)
(0.330584 0.120124 0)
(0.24266 0.131819 0)
(0.149382 0.142023 0)
(0.0573658 0.164401 0)
(3 2.06519e-17 0)
(3 1.01194e-15 0)
(3 4.17169e-15 0)
(3 3.66572e-15 0)
(3 1.77607e-15 0)
(3 -2.17878e-15 0)
(3 2.83964e-15 0)
(3 4.32658e-15 0)
(3 7.68252e-15 0)
(3 2.11682e-15 0)
(1.37276 0.111348 0)
(0.727188 0.0999161 0)
(0.645672 0.109304 0)
(0.574591 0.119543 0)
(0.498002 0.128322 0)
(0.417965 0.138361 0)
(0.332856 0.148144 0)
(0.243323 0.16214 0)
(0.148155 0.173466 0)
(0.0562762 0.199043 0)
(3 1.0326e-16 0)
(3 5.78254e-16 0)
(3 -3.20105e-16 0)
(3 1.10488e-15 0)
(3 -5.16298e-17 0)
(3 -2.00324e-15 0)
(3 -1.46629e-15 0)
(3 8.77707e-16 0)
(3 2.63312e-15 0)
(3 -5.26624e-16 0)
(1.40722 0.131338 0)
(0.731467 0.119046 0)
(0.647766 0.129503 0)
(0.577463 0.141489 0)
(0.501548 0.152104 0)
(0.422112 0.164507 0)
(0.336861 0.176574 0)
(0.246522 0.193114 0)
(0.149622 0.205497 0)
(0.0570262 0.233732 0)
(3 6.19558e-17 0)
(3 4.13039e-16 0)
(3 -1.87933e-15 0)
(3 -3.39724e-15 0)
(3 -5.11135e-15 0)
(3 -4.09941e-15 0)
(3 -1.38368e-15 0)
(3 -1.92063e-15 0)
(3 -5.34885e-15 0)
(3 -5.75156e-15 0)
(1.44842 0.151415 0)
(0.736418 0.138694 0)
(0.649666 0.14971 0)
(0.580209 0.16325 0)
(0.505244 0.175676 0)
(0.426809 0.190615 0)
(0.341586 0.20537 0)
(0.250108 0.224888 0)
(0.150751 0.238425 0)
(0.0566438 0.268853 0)
(3 -6.81514e-16 0)
(3 -1.18749e-15 0)
(3 -1.73476e-15 0)
(3 -1.60052e-15 0)
(3 -1.29075e-15 0)
(3 -3.35594e-15 0)
(3 -2.63312e-15 0)
(3 -3.08746e-15 0)
(3 -7.2385e-15 0)
(3 -8.69446e-15 0)
(1.49714 0.171527 0)
(0.742377 0.159065 0)
(0.651606 0.169989 0)
(0.582921 0.184809 0)
(0.509024 0.198964 0)
(0.432043 0.216544 0)
(0.347771 0.234299 0)
(0.25644 0.25718 0)
(0.155289 0.272214 0)
(0.0589065 0.30473 0)
(3 -1.34238e-16 0)
(3 -2.57117e-15 0)
(3 -1.42498e-15 0)
(3 -4.44016e-16 0)
(3 6.09232e-16 0)
(3 -3.61409e-16 0)
(3 -1.99291e-15 0)
(3 -2.48856e-15 0)
(3 -3.64507e-15 0)
(3 -4.3369e-15 0)
(1.55408 0.191543 0)
(0.749578 0.180337 0)
(0.653803 0.190404 0)
(0.58582 0.206173 0)
(0.513105 0.22191 0)
(0.437774 0.242192 0)
(0.354389 0.263384 0)
(0.262598 0.290348 0)
(0.158663 0.307521 0)
(0.0592042 0.341997 0)
(3 -2.89127e-16 0)
(3 -3.30431e-16 0)
(3 -1.89998e-15 0)
(3 -7.33143e-16 0)
(3 1.0326e-15 0)
(3 2.22008e-15 0)
(3 -2.06519e-17 0)
(3 -3.20105e-15 0)
(3 -3.37659e-15 0)
(3 -4.56408e-15 0)
(1.61989 0.211284 0)
(0.758187 0.202654 0)
(0.656409 0.21101 0)
(0.589002 0.227357 0)
(0.517519 0.244479 0)
(0.444241 0.267428 0)
(0.362772 0.292275 0)
(0.272157 0.323751 0)
(0.166417 0.343859 0)
(0.0631339 0.380755 0)
(3 -3.92387e-16 0)
(3 6.81514e-16 0)
(3 -4.23365e-16 0)
(3 1.02227e-15 0)
(3 5.67928e-16 0)
(3 2.16845e-16 0)
(3 -9.39663e-16 0)
(3 -3.64507e-15 0)
(3 -6.04069e-15 0)
(3 -5.18363e-15 0)
(1.69518 0.230606 0)
(0.768372 0.226135 0)
(0.659594 0.231827 0)
(0.592734 0.248382 0)
(0.522474 0.26668 0)
(0.451155 0.292288 0)
(0.371209 0.321256 0)
(0.280836 0.358296 0)
(0.171893 0.382637 0)
(0.0638308 0.422055 0)
(3 -5.16298e-17 0)
(3 -1.0326e-17 0)
(3 1.10488e-15 0)
(3 3.01518e-15 0)
(3 7.84773e-16 0)
(3 7.95099e-16 0)
(3 5.16298e-17 0)
(3 -2.04454e-15 0)
(3 -4.03745e-15 0)
(3 -4.13039e-17 0)
(1.78061 0.249278 0)
(0.78026 0.250898 0)
(0.663285 0.252848 0)
(0.596955 0.269218 0)
(0.528186 0.288408 0)
(0.459445 0.316516 0)
(0.382301 0.34968 0)
(0.294369 0.392653 0)
(0.183781 0.422555 0)
(0.0699747 0.465685 0)
(3 2.06519e-17 0)
(3 1.85867e-16 0)
(3 1.12553e-15 0)
(3 1.89998e-15 0)
(3 4.80157e-15 0)
(3 4.58473e-15 0)
(3 7.53795e-16 0)
(3 -1.04292e-15 0)
(3 1.84835e-15 0)
(3 3.87224e-15 0)
(1.87695 0.267439 0)
(0.794257 0.27713 0)
(0.6678 0.274126 0)
(0.601805 0.289992 0)
(0.534243 0.309823 0)
(0.468022 0.340352 0)
(0.393506 0.378076 0)
(0.307287 0.42845 0)
(0.192953 0.466377 0)
(0.0714776 0.513789 0)
(3 1.23912e-16 0)
(3 3.82061e-16 0)
(3 7.84773e-16 0)
(3 -3.40757e-16 0)
(3 1.73476e-15 0)
(3 4.21299e-15 0)
(3 4.58473e-15 0)
(3 4.62603e-15 0)
(3 3.38692e-15 0)
(3 1.71411e-15 0)
(1.98577 0.284012 0)
(0.811347 0.304766 0)
(0.673667 0.295345 0)
(0.60817 0.31037 0)
(0.542261 0.330349 0)
(0.479023 0.363025 0)
(0.40779 0.405506 0)
(0.326354 0.463312 0)
(0.211284 0.511474 0)
(0.0809601 0.565737 0)
(3 -2.58149e-16 0)
(3 -1.13586e-16 0)
(3 3.09779e-17 0)
(3 -2.34399e-15 0)
(3 -5.20429e-15 0)
(3 -1.3114e-15 0)
(3 7.02166e-16 0)
(3 1.18749e-15 0)
(3 8.98359e-16 0)
(3 1.78639e-15 0)
(2.10721 0.299546 0)
(0.832077 0.334427 0)
(0.680292 0.317498 0)
(0.614069 0.331486 0)
(0.548808 0.35121 0)
(0.489009 0.385771 0)
(0.423169 0.43274 0)
(0.34472 0.499755 0)
(0.227021 0.562923 0)
(0.0836618 0.626013 0)
(3 3.09779e-16 0)
(3 9.70641e-16 0)
(3 1.44563e-16 0)
(3 -3.42822e-15 0)
(3 -4.76027e-15 0)
(3 -2.80866e-15 0)
(3 -4.13039e-17 0)
(3 -5.05972e-16 0)
(3 3.65539e-15 0)
(3 1.96193e-15 0)
(2.24003 0.308961 0)
(0.858125 0.364639 0)
(0.691831 0.337769 0)
(0.625845 0.351358 0)
(0.560972 0.370094 0)
(0.503752 0.405876 0)
(0.442776 0.457146 0)
(0.3701 0.534884 0)
(0.256146 0.615559 0)
(0.100395 0.693665 0)
(3 8.05425e-16 0)
(3 7.33143e-16 0)
(3 -3.71735e-16 0)
(3 -2.13747e-15 0)
(3 2.00324e-15 0)
(3 1.28042e-15 0)
(3 7.95099e-16 0)
(3 1.71411e-15 0)
(3 1.49726e-15 0)
(3 -3.30431e-16 0)
(2.38144 0.315641 0)
(0.883087 0.400119 0)
(0.697116 0.362715 0)
(0.631836 0.375065 0)
(0.566875 0.39155 0)
(0.514665 0.427132 0)
(0.459178 0.481644 0)
(0.398108 0.570318 0)
(0.284832 0.677777 0)
(0.106708 0.779887 0)
(3 7.74447e-16 0)
(3 -4.23365e-16 0)
(3 -2.64345e-15 0)
(3 1.20814e-15 0)
(3 1.8277e-15 0)
(3 8.88033e-16 0)
(3 4.3369e-16 0)
(3 2.64345e-15 0)
(3 1.99291e-15 0)
(3 1.19781e-15 0)
(2.57694 0.318061 0)
(0.934172 0.43407 0)
(0.725561 0.383979 0)
(0.659519 0.397893 0)
(0.589593 0.412493 0)
(0.534891 0.446837 0)
(0.480104 0.504452 0)
(0.432387 0.604081 0)
(0.335805 0.738517 0)
(0.134265 0.877937 0)
(3 9.29337e-17 0)
(3 4.3369e-16 0)
(3 1.32172e-15 0)
(3 4.5331e-15 0)
(3 2.82931e-15 0)
(3 1.80704e-15 0)
(3 3.57278e-15 0)
(3 3.65539e-15 0)
(3 2.59182e-15 0)
(3 4.95646e-16 0)
(2.82859 0.278542 0)
(1.01284 0.465596 0)
(0.78206 0.401133 0)
(0.717278 0.41546 0)
(0.640687 0.43064 0)
(0.575542 0.465652 0)
(0.515754 0.525004 0)
(0.475245 0.632617 0)
(0.402693 0.805535 0)
(0.201552 1.03828 0)
(3 -2.16845e-16 0)
(3 1.44563e-16 0)
(3 1.02227e-15 0)
(3 1.43531e-15 0)
(3 1.40949e-15 0)
(3 1.47919e-15 0)
(3 1.26751e-15 0)
(3 3.53664e-16 0)
(3 1.29075e-17 0)
(3 -7.56377e-16 0)
(3.05571 0.031636 0)
(1.21646 0.489896 0)
(0.858464 0.437235 0)
(0.80503 0.450946 0)
(0.745633 0.476398 0)
(0.681971 0.513456 0)
(0.623367 0.576208 0)
(0.584627 0.699349 0)
(0.596693 0.887994 0)
(0.695331 1.14713 0)
(3 2.83964e-17 0)
(3 1.2133e-16 0)
(3 -4.38853e-16 0)
(3 -7.35725e-16 0)
(3 -5.85998e-16 0)
(3 -7.22817e-17 0)
(3 -1.172e-15 0)
(3 -9.19011e-16 0)
(3 -1.15134e-15 0)
(3 -2.25106e-15 0)
(3.00247 4.96464e-05 0)
(1.61777 0.472281 0)
(0.892391 0.531521 0)
(0.824446 0.550213 0)
(0.798609 0.584715 0)
(0.767669 0.624744 0)
(0.753588 0.684797 0)
(0.758586 0.783844 0)
(0.847963 0.915164 0)
(1.09193 1.02203 0)
(3 4.64668e-17 0)
(3 1.44563e-16 0)
(3 -6.60862e-16 0)
(3 -6.42791e-16 0)
(3 -4.54342e-16 0)
(3 -3.87224e-17 0)
(3 -6.66025e-16 0)
(3 1.29075e-17 0)
(3 9.60315e-16 0)
(3 3.20105e-16 0)
(3.00001 -1.09151e-07 0)
(2.52383 0.351785 0)
(1.0483 0.619203 0)
(0.894813 0.597149 0)
(0.877076 0.632516 0)
(0.863332 0.666936 0)
(0.87449 0.718136 0)
(0.909697 0.789473 0)
(1.02415 0.878897 0)
(1.25215 0.944396 0)
(3 -2.19427e-16 0)
(3 -7.35725e-16 0)
(3 -5.31787e-16 0)
(3 -6.32465e-16 0)
(3 -8.93196e-16 0)
(3 -9.96456e-16 0)
(3 -5.96324e-16 0)
(3 -1.00936e-15 0)
(3 -4.90483e-17 0)
(3 1.73734e-15 0)
(3 -1.94631e-07 0)
(3.05194 0.0288456 0)
(1.49918 0.639296 0)
(1.00514 0.671764 0)
(0.97087 0.671862 0)
(0.961306 0.703351 0)
(0.979239 0.74947 0)
(1.03332 0.802102 0)
(1.1454 0.858384 0)
(1.32875 0.898113 0)
(3 -1.0326e-17 0)
(3 -1.18232e-15 0)
(3 -8.88033e-16 0)
(3 -1.11004e-15 0)
(3 -1.71411e-15 0)
(3 -1.99033e-15 0)
(3 -2.86545e-16 0)
(3 -2.96871e-16 0)
(3 -4.23365e-16 0)
(3 -6.32465e-16 0)
(3 -2.94621e-08 0)
(3.00218 0.000365006 0)
(2.47186 0.435874 0)
(1.1848 0.744443 0)
(1.04612 0.746435 0)
(1.05514 0.748688 0)
(1.07415 0.768728 0)
(1.12811 0.800343 0)
(1.2244 0.831584 0)
(1.37083 0.853958 0)
(3 2.19427e-16 0)
(3 7.43469e-16 0)
(3 6.24721e-16 0)
(3 5.57602e-16 0)
(3 8.67381e-16 0)
(3 6.86677e-16 0)
(3 8.38985e-16 0)
(3 1.00162e-15 0)
(3 9.83548e-16 0)
(3 1.28816e-15 0)
(3 -1.24832e-09 0)
(3 4.7632e-07 0)
(3.04053 0.03412 0)
(1.68024 0.7169 0)
(1.13763 0.788423 0)
(1.15096 0.783186 0)
(1.16674 0.798137 0)
(1.21294 0.812602 0)
(1.28855 0.826397 0)
(1.40619 0.834882 0)
(3 -1.54889e-16 0)
(3 5.29206e-16 0)
(3 1.45854e-15 0)
(3 2.10133e-15 0)
(3 2.40595e-15 0)
(3 1.77607e-15 0)
(3 1.283e-15 0)
(3 1.45854e-15 0)
(3 1.10488e-15 0)
(3 2.20976e-15 0)
(3 -2.53645e-12 0)
(3 -5.3718e-08 0)
(3.00163 0.000793049 0)
(2.80843 0.30446 0)
(1.42763 0.831418 0)
(1.21049 0.825245 0)
(1.25526 0.824022 0)
(1.29049 0.829477 0)
(1.35069 0.833326 0)
(1.44317 0.829619 0)
(3 -2.19427e-16 0)
(3 -7.04747e-16 0)
(3 -6.9184e-16 0)
(3 -4.77576e-16 0)
(3 -5.05972e-16 0)
(3 -3.82061e-16 0)
(3 -5.55021e-16 0)
(3 -5.08554e-16 0)
(3 -5.60184e-16 0)
(3 -8.28659e-16 0)
(3 -3.62441e-15 0)
(3 -8.3147e-09 0)
(3 1.31088e-06 0)
(3.01713 0.01185 0)
(2.19306 0.644551 0)
(1.31757 0.862987 0)
(1.30294 0.865577 0)
(1.35022 0.862551 0)
(1.40155 0.859772 0)
(1.47544 0.847472 0)
(3 1.18749e-16 0)
(3 2.19427e-16 0)
(3 1.18749e-16 0)
(3 -2.58149e-17 0)
(3 2.16845e-16 0)
(3 2.60731e-16 0)
(3 6.47954e-16 0)
(3 6.55699e-16 0)
(3 -6.45373e-17 0)
(3 1.11004e-16 0)
(3 -7.58958e-16 0)
(3 -3.81138e-10 0)
(3 -2.79316e-10 0)
(3.00015 0.000192347 0)
(2.98109 0.105467 0)
(1.84609 0.774802 0)
(1.37514 0.882547 0)
(1.40963 0.878648 0)
(1.45463 0.871767 0)
(1.51552 0.857677 0)
(3 1.18749e-16 0)
(3 1.31656e-16 0)
(3 4.00131e-16 0)
(3 7.74447e-17 0)
(3 1.39401e-16 0)
(3 -1.39401e-16 0)
(3 4.18202e-16 0)
(3 3.20105e-16 0)
(3 1.16167e-16 0)
(3 4.13039e-17 0)
(3 8.88033e-16 0)
(3 -2.05842e-12 0)
(3 -6.00594e-11 0)
(3 1.04202e-07 0)
(3.00174 0.00415928 0)
(2.81457 0.275322 0)
(1.72082 0.85109 0)
(1.45072 0.907946 0)
(1.49391 0.898427 0)
(1.54955 0.884234 0)
(3 -1.9103e-16 0)
(3 -4.23365e-16 0)
(3 -8.90614e-16 0)
(3 -6.60862e-16 0)
(3 -9.73222e-16 0)
(3 -1.29333e-15 0)
(3 -2.01098e-15 0)
(3 -3.05132e-15 0)
(3 -2.01356e-15 0)
(3 -2.58149e-15 0)
(3 -1.71411e-15 0)
(3 -4.79641e-15 0)
(3 -4.10052e-12 0)
(3 6.92303e-12 0)
(3 1.51051e-05 0)
(3.00223 0.01601 0)
(2.61206 0.433607 0)
(1.70068 0.890712 0)
(1.52082 0.922577 0)
(1.5741 0.911836 0)
(3 2.22008e-16 0)
(3 5.16298e-16 0)
(3 5.55021e-16 0)
(3 4.10457e-16 0)
(3 -1.47661e-15 0)
(3 -3.04616e-15 0)
(3 -3.96775e-15 0)
(3 -4.76027e-15 0)
(3 -3.90838e-15 0)
(3 -3.91354e-15 0)
(3 -2.75187e-15 0)
(3 -6.0665e-16 0)
(3 -9.63258e-14 0)
(3 -9.4036e-14 0)
(3 5.2864e-09 0)
(3 0.000171966 0)
(2.99298 0.0368666 0)
(2.46624 0.539695 0)
(1.72024 0.917367 0)
(1.59809 0.928993 0)
(3 2.14264e-16 0)
(3 5.21461e-16 0)
(3 7.17654e-16 0)
(3 1.00678e-16 0)
(3 3.82061e-16 0)
(3 -7.48632e-17 0)
(3 5.83417e-16 0)
(3 1.34754e-15 0)
(3 7.0991e-16 0)
(3 2.41628e-15 0)
(3 2.31043e-15 0)
(3 2.94032e-15 0)
(3 1.54115e-15 0)
(3 -2.22731e-14 0)
(3 5.91311e-13 0)
(3 1.26705e-07 0)
(2.99997 0.000699579 0)
(2.97035 0.0671482 0)
(2.42125 0.60188 0)
(1.73147 0.91576 0)
(3 3.76898e-16 0)
(3 -3.09779e-17 0)
(3 -1.64183e-15 0)
(3 -1.32689e-15 0)
(3 1.66764e-15 0)
(3 3.29656e-15 0)
(3 6.07941e-15 0)
(3 5.90645e-15 0)
(3 5.07779e-15 0)
(3 3.95226e-15 0)
(3 2.51954e-15 0)
(3 6.99584e-16 0)
(3 -5.34369e-16 0)
(3 -5.07521e-15 0)
(3 -4.25172e-15 0)
(3 3.38224e-11 0)
(3 7.80179e-07 0)
(2.99963 0.0019933 0)
(2.97366 0.0803429 0)
(2.27224 0.689262 0)
(3 1.60052e-16 0)
(3 -1.26493e-16 0)
(3 4.02713e-16 0)
(3 1.93612e-16 0)
(3 -3.56246e-16 0)
(3 -1.13586e-16 0)
(3 1.18749e-16 0)
(3 5.85998e-16 0)
(3 1.18749e-16 0)
(3 -7.22817e-16 0)
(3 -2.19685e-15 0)
(3 -2.78801e-15 0)
(3 -2.04454e-15 0)
(3 -3.56246e-16 0)
(3 -9.21592e-16 0)
(3 4.20783e-16 0)
(3 3.60977e-10 0)
(3 3.29821e-06 0)
(2.99977 0.00311851 0)
(2.97747 0.132042 0)
(3 -6.99584e-16 0)
(3 -4.28528e-16 0)
(3 5.78254e-16 0)
(3 1.06874e-15 0)
(3 -4.13039e-17 0)
(3 -3.22686e-16 0)
(3 -1.86384e-15 0)
(3 -1.5618e-15 0)
(3 -1.5618e-15 0)
(3 -1.67022e-15 0)
(3 -1.64957e-15 0)
(3 -1.06874e-15 0)
(3 -1.15134e-15 0)
(3 -1.0326e-17 0)
(3 -2.73638e-16 0)
(3 4.51761e-16 0)
(3 3.62416e-14 0)
(3 1.1701e-09 0)
(3 1.42875e-05 0)
(3.01122 0.00195421 0)
(3 -1.70378e-16 0)
(3 -4.49179e-16 0)
(3 -9.68059e-16 0)
(3 -6.0665e-16 0)
(3 -5.05972e-16 0)
(3 -5.42113e-17 0)
(3 -3.84642e-16 0)
(3 -4.54342e-16 0)
(3 -1.12295e-15 0)
(3 -7.74447e-16 0)
(3 1.7296e-16 0)
(3 -1.02743e-15 0)
(3 -3.45662e-15 0)
(3 -5.2998e-15 0)
(3 -3.28882e-15 0)
(3 -2.26655e-15 0)
(3 -2.81124e-15 0)
(3 5.3757e-14 0)
(3 1.51518e-08 0)
(3.00008 1.59837e-06 0)
(3 1.96193e-16 0)
(3 4.95646e-16 0)
(3 5.03391e-16 0)
(3 6.42791e-16 0)
(3 8.95777e-16 0)
(3 6.53117e-16 0)
(3 1.45596e-15 0)
(3 1.63925e-15 0)
(3 6.32465e-16 0)
(3 7.58958e-16 0)
(3 5.96324e-16 0)
(3 7.17654e-16 0)
(3 1.53599e-15 0)
(3 2.1065e-15 0)
(3 2.08068e-15 0)
(3 1.99807e-15 0)
(3 1.48694e-15 0)
(3 5.39532e-16 0)
(3 6.55102e-12 0)
(3 -1.74627e-07 0)
(3 6.97003e-17 0)
(3 3.1236e-16 0)
(3 5.21461e-16 0)
(3 2.71057e-16 0)
(3 3.74316e-16 0)
(3 3.71735e-16 0)
(3 3.22686e-16 0)
(3 2.2459e-16 0)
(3 6.68606e-16 0)
(3 1.43015e-15 0)
(3 1.95161e-15 0)
(3 3.2501e-15 0)
(3 4.93839e-15 0)
(3 5.92452e-15 0)
(3 5.68961e-15 0)
(3 5.56569e-15 0)
(3 4.81706e-15 0)
(3 2.46791e-15 0)
(3 4.76801e-15 0)
(3 -3.28695e-08 0)
(3 -2.73638e-16 0)
(3 -2.86545e-16 0)
(3 -4.05294e-16 0)
(3 -5.93743e-16 0)
(3 -7.7961e-16 0)
(3 -6.01487e-16 0)
(3 -1.16683e-15 0)
(3 -1.51017e-15 0)
(3 -1.34238e-15 0)
(3 -7.53795e-16 0)
(3 1.41982e-16 0)
(3 5.05972e-16 0)
(3 9.16429e-16 0)
(3 9.88711e-16 0)
(3 1.82511e-15 0)
(3 1.91805e-15 0)
(3 1.98517e-15 0)
(3 1.37335e-15 0)
(3 2.23041e-15 0)
(3 -1.23506e-09 0)
(1.72235 1.09948 0)
(2.41544 0.204789 0)
(2.38313 -0.0665678 0)
(2.18698 -0.0805038 0)
(2.3256 -0.0291296 0)
(1.20914 0.0430026 0)
(0.652345 0.0049362 0)
(0.706561 -0.0310534 0)
(0.859299 -0.0446171 0)
(1.02375 -0.0451168 0)
(1.1928 -0.0382719 0)
(1.35125 -0.0300413 0)
(1.49322 -0.0186327 0)
(1.62488 -0.010842 0)
(1.72097 0.000495675 0)
(1.80488 0.00357058 0)
(1.88263 0.00753687 0)
(1.95025 0.00990278 0)
(2.00243 0.0120307 0)
(2.08749 0.0132879 0)
(1.8254 0.558474 0)
(2.41604 -0.0304941 0)
(2.46304 -0.267607 0)
(2.35033 -0.134494 0)
(2.40607 -0.0197868 0)
(1.34533 0.166255 0)
(0.774369 0.000333225 0)
(0.843801 -0.0715539 0)
(1.00106 -0.0699553 0)
(1.14535 -0.0548144 0)
(1.28725 -0.0345419 0)
(1.4215 -0.0223556 0)
(1.54293 -0.0154657 0)
(1.65669 -0.0036326 0)
(1.74442 0.00346527 0)
(1.82591 0.0109372 0)
(1.90147 0.0213657 0)
(1.96771 0.0230222 0)
(2.02113 0.0272759 0)
(2.10647 0.0340769 0)
(1.83738 0.642502 0)
(2.2805 0.362971 0)
(2.45058 -0.153996 0)
(2.51076 -0.122533 0)
(2.50606 -0.0753591 0)
(1.72836 0.166242 0)
(1.06485 -0.0146995 0)
(1.13003 -0.104529 0)
(1.27408 -0.103348 0)
(1.38138 -0.0893664 0)
(1.48044 -0.0832128 0)
(1.57154 -0.0677367 0)
(1.65518 -0.048026 0)
(1.7357 -0.0237182 0)
(1.81041 0.000470363 0)
(1.87858 0.0153705 0)
(1.94449 0.0288461 0)
(2.004 0.0344838 0)
(2.05468 0.0458391 0)
(2.13638 0.0556684 0)
(1.79686 0.731612 0)
(2.23613 0.374958 0)
(2.45517 -0.121811 0)
(2.58188 -0.146053 0)
(2.56291 -0.134817 0)
(2.10942 -0.0141281 0)
(1.3752 -0.0122367 0)
(1.4083 -0.127273 0)
(1.52472 -0.127537 0)
(1.59926 -0.0953832 0)
(1.66599 -0.0617777 0)
(1.72376 -0.0351782 0)
(1.77926 -0.0121893 0)
(1.83475 0.00758663 0)
(1.89322 0.0232782 0)
(1.94844 0.0340601 0)
(2.00326 0.0486967 0)
(2.05426 0.0509406 0)
(2.10159 0.0613791 0)
(2.17775 0.0711095 0)
(1.77215 0.748215 0)
(2.16965 0.464954 0)
(2.4093 0.0859701 0)
(2.56927 -0.034988 0)
(2.55072 -0.106893 0)
(2.27747 -0.393262 0)
(1.5728 -0.0671537 0)
(1.56054 -0.126092 0)
(1.65924 -0.115704 0)
(1.72789 -0.0889466 0)
(1.78173 -0.0663666 0)
(1.82824 -0.0446979 0)
(1.87352 -0.0179994 0)
(1.91893 0.00862483 0)
(1.96772 0.0324806 0)
(2.01505 0.0478709 0)
(2.06281 0.0656021 0)
(2.10763 0.066895 0)
(2.15274 0.0834179 0)
(2.22229 0.0952576 0)
(1.7378 0.773433 0)
(2.09297 0.532285 0)
(2.36973 0.200741 0)
(2.56582 0.0530274 0)
(2.50806 -0.168727 0)
(2.2582 -0.669567 0)
(1.74194 -0.248039 0)
(1.61132 -0.113074 0)
(1.71621 -0.112032 0)
(1.79168 -0.091481 0)
(1.84521 -0.0576993 0)
(1.88886 -0.0227803 0)
(1.93131 0.0110255 0)
(1.97454 0.0392945 0)
(2.0211 0.0605448 0)
(2.06615 0.0739806 0)
(2.11125 0.0915877 0)
(2.15278 0.093188 0)
(2.19782 0.115347 0)
(2.26322 0.120826 0)
(1.71153 0.79002 0)
(2.04383 0.556643 0)
(2.30635 0.338501 0)
(2.51103 0.124023 0)
(2.48759 -0.114133 0)
(2.14106 -0.773197 0)
(1.93975 -0.493314 0)
(1.65007 -0.160131 0)
(1.7656 -0.0911328 0)
(1.83706 -0.0735783 0)
(1.88902 -0.0469741 0)
(1.93373 -0.0141925 0)
(1.9773 0.0205283 0)
(2.02059 0.0529087 0)
(2.06522 0.0801759 0)
(2.10852 0.0950918 0)
(2.15161 0.115287 0)
(2.19263 0.116549 0)
(2.23891 0.143565 0)
(2.29964 0.13805 0)
(1.69237 0.805361 0)
(1.99891 0.587799 0)
(2.24174 0.46033 0)
(2.47138 0.174919 0)
(2.35886 -0.18992 0)
(2.04737 -0.71963 0)
(2.02761 -0.675841 0)
(1.80535 -0.261245 0)
(1.81664 -0.106607 0)
(1.88437 -0.0665392 0)
(1.92995 -0.0323707 0)
(1.97149 0.00726736 0)
(2.01242 0.0458211 0)
(2.05516 0.0790627 0)
(2.1002 0.105931 0)
(2.14321 0.121078 0)
(2.18531 0.140138 0)
(2.2275 0.148292 0)
(2.2685 0.180016 0)
(2.32445 0.161632 0)
(1.69231 0.810699 0)
(1.96731 0.61943 0)
(2.20765 0.557201 0)
(2.36594 0.248466 0)
(2.14953 -0.269956 0)
(2.01343 -0.653281 0)
(2.0477 -0.68494 0)
(2.02469 -0.454708 0)
(1.89518 -0.153429 0)
(1.93489 -0.0469881 0)
(1.97535 -0.0142953 0)
(2.01504 0.0223724 0)
(2.05428 0.0597553 0)
(2.09467 0.0935195 0)
(2.13633 0.125497 0)
(2.17667 0.144393 0)
(2.21618 0.168306 0)
(2.26404 0.176345 0)
(2.29011 0.210589 0)
(2.34662 0.162802 0)
(1.69415 0.830158 0)
(1.95455 0.658056 0)
(2.15918 0.659567 0)
(2.19331 0.226659 0)
(1.99996 -0.326493 0)
(1.99038 -0.595099 0)
(2.06084 -0.631893 0)
(2.11254 -0.568316 0)
(2.04269 -0.276328 0)
(1.99593 -0.0646436 0)
(2.02699 0.00883442 0)
(2.05677 0.0442012 0)
(2.09241 0.083668 0)
(2.12846 0.118416 0)
(2.16705 0.151391 0)
(2.20586 0.171754 0)
(2.24846 0.19301 0)
(2.29926 0.211929 0)
(2.30454 0.230207 0)
(2.35179 0.173301 0)
(1.70483 0.846356 0)
(1.95583 0.719 0)
(2.14562 0.694332 0)
(2.02542 0.13716 0)
(1.91778 -0.345906 0)
(1.97162 -0.506754 0)
(2.07041 -0.584872 0)
(2.16738 -0.574148 0)
(2.16723 -0.406642 0)
(2.09825 -0.132452 0)
(2.08253 0.0125851 0)
(2.10036 0.0625793 0)
(2.13033 0.101735 0)
(2.16285 0.136341 0)
(2.19857 0.173071 0)
(2.23529 0.197994 0)
(2.27214 0.227762 0)
(2.31461 0.250548 0)
(2.32978 0.240395 0)
(2.33116 0.136927 0)
(1.73054 0.862536 0)
(1.93327 0.799591 0)
(2.09823 0.663579 0)
(1.90278 0.0289899 0)
(1.8793 -0.352399 0)
(1.96426 -0.437306 0)
(2.08154 -0.500737 0)
(2.18214 -0.550803 0)
(2.24092 -0.479171 0)
(2.19806 -0.244518 0)
(2.13239 -0.0117862 0)
(2.14474 0.0853851 0)
(2.15908 0.124465 0)
(2.18589 0.161441 0)
(2.21698 0.201223 0)
(2.25413 0.226877 0)
(2.2982 0.260371 0)
(2.32692 0.277122 0)
(2.34211 0.233862 0)
(2.30197 0.087134 0)
(1.74893 0.905486 0)
(1.92894 0.861732 0)
(2.00914 0.549834 0)
(1.81267 -0.0483021 0)
(1.85942 -0.311408 0)
(1.95997 -0.375361 0)
(2.07841 -0.427668 0)
(2.18354 -0.475579 0)
(2.25354 -0.470658 0)
(2.26358 -0.331226 0)
(2.22072 -0.08764 0)
(2.18298 0.093483 0)
(2.17705 0.157448 0)
(2.19135 0.194509 0)
(2.2207 0.233614 0)
(2.2601 0.263029 0)
(2.29726 0.291692 0)
(2.32695 0.283065 0)
(2.32167 0.22076 0)
(2.25752 0.0132677 0)
(1.78551 0.914702 0)
(1.92072 0.882336 0)
(1.88601 0.426412 0)
(1.71625 -0.0848483 0)
(1.82459 -0.255389 0)
(1.95146 -0.319288 0)
(2.06832 -0.356299 0)
(2.18117 -0.407167 0)
(2.27185 -0.43361 0)
(2.32356 -0.375834 0)
(2.29652 -0.184854 0)
(2.24972 0.0403357 0)
(2.22666 0.173102 0)
(2.23071 0.220931 0)
(2.25579 0.265584 0)
(2.29053 0.297177 0)
(2.29955 0.311865 0)
(2.31761 0.272207 0)
(2.29068 0.163606 0)
(2.22809 -0.0216613 0)
(1.89659 0.911961 0)
(1.91246 0.867379 0)
(1.6562 0.260406 0)
(1.6295 -0.0844805 0)
(1.79021 -0.202467 0)
(1.93948 -0.265056 0)
(2.06463 -0.301363 0)
(2.17128 -0.328701 0)
(2.28099 -0.362368 0)
(2.32738 -0.362058 0)
(2.37611 -0.249849 0)
(2.33329 -0.0358007 0)
(2.28283 0.169379 0)
(2.27132 0.255122 0)
(2.28045 0.301989 0)
(2.3022 0.329945 0)
(2.30868 0.304796 0)
(2.29449 0.237277 0)
(2.23468 0.0493019 0)
(2.20765 -0.0792234 0)
(1.99927 1.01721 0)
(1.90989 0.781201 0)
(1.42378 0.15444 0)
(1.56867 -0.0767668 0)
(1.75942 -0.151558 0)
(1.92825 -0.209333 0)
(2.06169 -0.243296 0)
(2.1745 -0.264399 0)
(2.28595 -0.292281 0)
(2.36222 -0.313455 0)
(2.43877 -0.263816 0)
(2.42069 -0.127755 0)
(2.35921 0.123999 0)
(2.3206 0.284838 0)
(2.31327 0.341081 0)
(2.31826 0.347787 0)
(2.30827 0.299342 0)
(2.26394 0.161333 0)
(2.22583 0.0255724 0)
(2.22679 -0.0544101 0)
(2.22237 0.925904 0)
(1.78234 0.590943 0)
(1.27508 0.0948188 0)
(1.5328 -0.0729688 0)
(1.75203 -0.119494 0)
(1.93594 -0.164157 0)
(2.07999 -0.195246 0)
(2.19688 -0.210858 0)
(2.29881 -0.219861 0)
(2.40379 -0.255005 0)
(2.46174 -0.259195 0)
(2.48795 -0.161661 0)
(2.43349 0.064227 0)
(2.39972 0.271541 0)
(2.37192 0.36954 0)
(2.35006 0.346032 0)
(2.30259 0.231769 0)
(2.23043 0.0284981 0)
(2.22243 -0.0486906 0)
(2.25415 -0.0634941 0)
(2.54366 0.730509 0)
(1.7474 0.4784 0)
(1.23273 0.0714879 0)
(1.53521 -0.061662 0)
(1.7713 -0.0856105 0)
(1.9582 -0.115973 0)
(2.10495 -0.140482 0)
(2.22285 -0.151631 0)
(2.3217 -0.152895 0)
(2.41711 -0.173892 0)
(2.49155 -0.196921 0)
(2.54339 -0.162 0)
(2.51433 0.0101645 0)
(2.50147 0.218912 0)
(2.44417 0.368584 0)
(2.3715 0.299487 0)
(2.29565 0.149331 0)
(2.26085 0.0342499 0)
(2.26008 -0.0259164 0)
(2.28631 -0.0371632 0)
(2.8661 0.390314 0)
(1.70217 0.289858 0)
(1.24297 0.0338062 0)
(1.56685 -0.0570636 0)
(1.81006 -0.0625273 0)
(1.99133 -0.0740255 0)
(2.13677 -0.0891753 0)
(2.25645 -0.0966159 0)
(2.35431 -0.0942071 0)
(2.43866 -0.103331 0)
(2.52996 -0.134339 0)
(2.58366 -0.132366 0)
(2.61992 0.00363564 0)
(2.59006 0.139388 0)
(2.49542 0.29159 0)
(2.37784 0.179193 0)
(2.27726 0.0134247 0)
(2.27067 -0.0288048 0)
(2.2814 -0.0371335 0)
(2.31642 -0.030147 0)
(2.95263 0.0714757 0)
(1.52223 0.164264 0)
(1.24778 0.0420117 0)
(1.59367 -0.0122622 0)
(1.84134 -0.022425 0)
(2.01841 -0.0266213 0)
(2.16179 -0.0305989 0)
(2.281 -0.0332763 0)
(2.37537 -0.0314708 0)
(2.45661 -0.0320604 0)
(2.54626 -0.0392434 0)
(2.60836 -0.0651601 0)
(2.66046 -0.0133746 0)
(2.62812 0.0274232 0)
(2.47345 0.093346 0)
(2.38138 0.156451 0)
(2.30156 0.0506663 0)
(2.29124 0.00502231 0)
(2.29602 -0.0103611 0)
(2.32598 -0.00925711 0)
)
;

boundaryField
{
    inlet
    {
        type            fixedValue;
        value           uniform (3 0 0);
    }
    outlet
    {
        type            inletOutlet;
        inletValue      uniform (3 0 0);
        value           nonuniform List<vector> 
20
(
(2.08749 0.0132879 0)
(2.10647 0.0340769 0)
(2.13638 0.0556684 0)
(2.17775 0.0711095 0)
(2.22229 0.0952576 0)
(2.26322 0.120826 0)
(2.29964 0.13805 0)
(2.32445 0.161632 0)
(2.34662 0.162802 0)
(2.35179 0.173301 0)
(2.33116 0.136927 0)
(2.30197 0.087134 0)
(2.25752 0.0132677 0)
(2.22809 -0.0216613 0)
(2.20765 -0.0792234 0)
(2.22679 -0.0544101 0)
(2.25415 -0.0634941 0)
(2.28631 -0.0371632 0)
(2.31642 -0.030147 0)
(2.32598 -0.00925711 0)
)
;
    }
    bottom
    {
        type            symmetryPlane;
    }
    top
    {
        type            symmetryPlane;
    }
    obstacle
    {
        type            slip;
    }
    defaultFaces
    {
        type            empty;
    }
}


// ************************************************************************* //
