/*--------------------------------*- C++ -*----------------------------------*\
  =========                 |
  \\      /  F ield         | OpenFOAM: The Open Source CFD Toolbox
   \\    /   O peration     | Website:  https://openfoam.org
    \\  /    A nd           | Version:  6.0
     \\/     M anipulation  |
\*---------------------------------------------------------------------------*/
FoamFile
{
    version     2.0;
    format      ascii;
    class       volScalarField;
    location    "2.5";
    object      p;
}
// * * * * * * * * * * * * * * * * * * * * * * * * * * * * * * * * * * * * * //

dimensions      [1 -1 -2 0 0 0 0];

internalField   nonuniform List<scalar> 
1200
(
1
1
1
1
1
1
1
1
1
1
4.28865
10.2154
10.6903
10.8919
11.1255
11.3331
11.5282
11.6929
11.8277
11.9345
1
1
1
1
1
1
1
1
1
1
4.27151
10.1977
10.6871
10.8888
11.122
11.3282
11.5216
11.6844
11.8167
11.9227
1
1
1
1
1
1
1
1
1
1
4.23175
10.1738
10.6778
10.8801
11.1131
11.3185
11.5103
11.671
11.7998
11.9045
1
1
1
1
1
1
1
1
1
1
4.16777
10.1409
10.6662
10.8684
11.1009
11.3043
11.4932
11.6509
11.7746
11.8771
1
1
1
1
1
1
1
1
1
1
4.08123
10.0983
10.6511
10.8528
11.0846
11.2859
11.4714
11.6254
11.7423
11.8429
1
1
1
1
1
1
1
1
1
1
3.9738
10.0439
10.6324
10.833
11.0632
11.2617
11.4437
11.5943
11.7042
11.8008
1
1
1
1
1
1
1
1
1
1
3.84725
9.975
10.6104
10.8092
11.0374
11.2322
11.4095
11.5555
11.6579
11.754
1
1
1
1
1
1
1
1
1
1
3.70423
9.89037
10.5853
10.781
11.0059
11.1967
11.3694
11.5113
11.6055
11.6961
1
1
1
1
1
1
1
1
1
1
3.54647
9.78847
10.5571
10.749
10.9694
11.155
11.3213
11.4572
11.5432
11.6339
1
1
1
1
1
1
1
1
1
1
3.37308
9.66946
10.527
10.7146
10.9297
11.1091
11.2683
11.3985
11.4763
11.5591
1
1
1
1
1
1
1
1
1
1
3.18292
9.53243
10.4952
10.6766
10.884
11.0556
11.2056
11.3273
11.3956
11.4768
1
1
1
1
1
1
1
1
1
1
2.97602
9.37393
10.4618
10.6357
10.8345
10.9973
11.1368
11.2495
11.3076
11.3759
1
1
1
1
1
1
1
1
1
1
2.75794
9.18924
10.4279
10.5914
10.7786
10.9303
11.0558
11.1548
11.1993
11.2628
1
1
1
1
1
1
1
1
1
1
2.53027
8.97449
10.3951
10.5466
10.7216
10.8598
10.9679
11.0499
11.0767
11.1196
1
1
1
1
1
1
1
1
1
1
2.30049
8.72376
10.3621
10.4983
10.6611
10.7841
10.8722
10.9291
10.9238
10.9529
1
1
1
1
1
1
1
1
1
1
2.06331
8.44533
10.3373
10.4486
10.5924
10.7005
10.767
10.7954
10.7503
10.7322
1
1
1
1
1
1
1
1
1
1
1.8261
8.12863
10.3169
10.4004
10.5281
10.6173
10.6562
10.641
10.5288
10.4605
1
1
1
1
1
1
1
1
1
1
1.54315
7.81324
10.3206
10.3492
10.4608
10.5359
10.5366
10.4752
10.2846
10.0911
1
1
1
1
1
1
1
1
1
1
1.25064
7.52946
10.2748
10.2562
10.3837
10.4481
10.416
10.2979
9.98033
9.56084
1
1
1
1
1
1
1
1
1
1
1.04683
7.13881
10.1577
10.1707
10.3068
10.3544
10.2895
10.1022
9.71657
9.10559
1
1
1
1
1
1
1
1
1
1
1.002
5.59987
9.81314
9.97411
10.064
10.0792
9.95364
9.62907
9.03724
7.07829
1
1
1
1
1
1
1
1
1
1
0.999997
3.19682
8.96066
9.75553
9.74482
9.68365
9.42671
8.92636
8.19646
6.53566
1
1
1
1
1
1
1
1
1
1
1
1.28764
7.26605
9.59921
9.42597
9.26965
8.92611
8.40631
7.58626
6.22494
1
1
1
1
1
1
1
1
1
1
1
1.00537
4.50496
8.87672
8.9745
8.81722
8.46569
7.9921
7.16534
6.16241
1
1
1
1
1
1
1
1
1
1
1
0.99997
1.53571
7.23368
8.89216
8.53037
8.16045
7.66789
6.97047
6.17579
1
1
1
1
1
1
1
1
1
1
1
0.999994
1.0161
4.16613
8.1879
8.16554
7.81889
7.38379
6.82745
6.19144
1
1
1
1
1
1
1
1
1
1
1
0.999999
1
1.43701
6.01073
8.05931
7.68308
7.26247
6.7664
6.21673
1
1
1
1
1
1
1
1
1
1
1
1
1
1.01023
2.35161
6.78127
7.58946
7.15597
6.71961
6.24194
1
1
1
1
1
1
1
1
1
1
1
1
1
1.00003
1.09003
3.62141
7.03154
7.17203
6.73581
6.30759
1
1
1
1
1
1
1
1
1
1
1
1
1
1
1.00077
1.33635
4.44607
6.96597
6.79465
6.37555
1
1
1
1
1
1
1
1
1
1
1
1
1
1
1
1.00709
1.63387
4.9069
6.61157
6.46582
1
1
1
1
1
1
1
1
1
1
1
1
1
1
1
1.00003
1.0222
1.90958
4.97259
6.3097
1
1
1
1
1
1
1
1
1
1
1
1
1
1
1
1
1.00013
1.04461
2.0516
5.03652
1
1
1
1
1
1
1
1
1
1
1
1
1
1
1
1
1
1.0004
1.05869
2.40126
1
1
1
1
1
1
1
1
1
1
1
1
1
1
1
1
1
1
1.00052
1.11148
1
1
1
1
1
1
1
1
1
1
1
1
1
1
1
1
1
1
1
1.001
1
1
1
1
1
1
1
1
1
1
1
1
1
1
1
1
1
1
1
1
1
1
1
1
1
1
1
1
1
1
1
1
1
1
1
1
1
1
1
1
1
1
1
1
1
1
1
1
1
1
1
1
1
1
1
1
1
1
1
1
1
1
1
1
1
1
1
1
1
1
1
1
1
1
1
1
1
1
1
1
1.15253
1.02265
1.11883
1.20653
1.27566
1.299
1.30014
2.34607
4.98772
5.57048
5.14574
4.75886
4.32595
3.96197
3.6334
3.34584
3.08298
2.83026
2.61518
2.2962
2.8101
1.33168
1.17757
1.20677
1.25109
1.27384
1.32241
2.33495
4.69738
5.42667
5.11843
4.71114
4.31731
3.95654
3.63267
3.34444
3.078
2.8241
2.61239
2.29783
3.49869
1.61086
1.21487
1.22534
1.24858
1.27532
1.41094
2.31272
4.24286
5.52568
5.14169
4.69579
4.29761
3.93868
3.61646
3.3222
3.05004
2.79831
2.59592
2.29035
3.95679
2.12534
1.39785
1.23411
1.22738
1.25384
1.60025
2.45326
3.44429
5.0132
5.13887
4.62049
4.24248
3.91824
3.60759
3.31565
3.04388
2.79217
2.58993
2.28524
4.34387
2.51727
1.63014
1.30333
1.2216
1.25989
1.94022
2.75356
2.95276
4.16151
4.90204
4.60945
4.22258
3.89528
3.59431
3.31031
3.03776
2.78008
2.57354
2.27173
4.63824
2.82788
1.96999
1.47513
1.24821
1.32681
2.35022
2.99454
2.93998
3.2603
4.35779
4.53552
4.20373
3.8742
3.57055
3.28926
3.01628
2.75941
2.55522
2.25836
4.84558
3.14102
2.29556
1.63689
1.30613
1.53494
2.69488
3.09001
2.95244
2.79725
3.51364
4.25615
4.16205
3.87028
3.54685
3.25822
2.99104
2.73997
2.53488
2.23739
4.97719
3.43705
2.59007
1.82486
1.44247
2.02167
2.98327
3.0965
2.90895
2.61482
2.77403
3.62865
4.01462
3.80768
3.50732
3.21736
2.95416
2.71356
2.51438
2.2218
5.08333
3.72823
2.83978
2.00246
1.67406
2.68076
3.19477
3.07634
2.83672
2.53809
2.39487
2.83551
3.65634
3.70624
3.46517
3.18237
2.92283
2.6868
2.49161
2.206
5.1655
4.02142
3.00949
2.18429
2.17397
3.42439
3.37108
3.08039
2.77693
2.49267
2.26447
2.28985
2.93607
3.47804
3.37804
3.1361
2.88961
2.66159
2.4708
2.19114
5.28878
4.30776
3.10548
2.3965
3.01675
4.00951
3.61125
3.13929
2.75466
2.47355
2.2057
2.04407
2.23811
2.93834
3.17452
3.05632
2.84326
2.62499
2.44109
2.17401
5.50657
4.51684
3.1788
2.71793
4.18534
4.37159
3.85228
3.24911
2.76978
2.44597
2.18117
1.97921
1.89211
2.23765
2.87751
2.95258
2.79916
2.59707
2.41358
2.15084
5.64574
4.68284
3.33191
3.39161
5.23421
4.71987
3.99518
3.34185
2.82596
2.45135
2.17587
1.93114
1.76977
1.78426
2.25586
2.73073
2.72436
2.56736
2.39335
2.13984
5.42368
4.8781
3.57269
4.67238
6.04009
5.08292
4.14686
3.44253
2.90359
2.48269
2.17312
1.92518
1.72025
1.59161
1.71481
2.2264
2.53341
2.49868
2.35663
2.12769
4.90615
4.63909
3.91888
6.35097
6.46775
5.35421
4.28924
3.52204
2.96256
2.52506
2.18357
1.92302
1.69416
1.53197
1.46498
1.69332
2.22788
2.36057
2.29819
2.10902
4.07821
4.19882
4.94144
7.94986
6.77159
5.51097
4.42085
3.61729
3.0362
2.58836
2.22223
1.93419
1.69706
1.48849
1.36531
1.36748
1.71657
2.16851
2.22857
2.09494
2.92272
3.873
6.96591
8.85272
6.98878
5.61591
4.52787
3.70503
3.09312
2.62378
2.24514
1.93516
1.68765
1.48651
1.32606
1.23707
1.32285
1.73929
2.05996
2.04342
1.79551
3.71696
8.95901
9.34393
7.19736
5.68675
4.58547
3.7607
3.13762
2.6582
2.27706
1.95401
1.69164
1.49319
1.31383
1.2088
1.16479
1.31185
1.74235
1.93278
1.18423
3.59203
10.524
9.53801
7.32943
5.72544
4.62586
3.81051
3.18031
2.68644
2.30567
1.99414
1.75023
1.54515
1.36905
1.22662
1.10969
1.1076
1.34597
1.89397
1.01336
4.14038
12.7825
10.02
7.37937
5.69157
4.61252
3.81725
3.19017
2.69121
2.3001
1.97709
1.69983
1.48731
1.32157
1.18252
1.04577
1.01104
1.09536
1.86095
)
;

boundaryField
{
    inlet
    {
        type            fixedValue;
        value           uniform 1;
    }
    outlet
    {
        type            zeroGradient;
    }
    bottom
    {
        type            symmetryPlane;
    }
    top
    {
        type            symmetryPlane;
    }
    obstacle
    {
        type            zeroGradient;
    }
    defaultFaces
    {
        type            empty;
    }
}


// ************************************************************************* //
