/*--------------------------------*- C++ -*----------------------------------*\
  =========                 |
  \\      /  F ield         | OpenFOAM: The Open Source CFD Toolbox
   \\    /   O peration     | Website:  https://openfoam.org
    \\  /    A nd           | Version:  6.0
     \\/     M anipulation  |
\*---------------------------------------------------------------------------*/
FoamFile
{
    version     2.0;
    format      ascii;
    class       volScalarField;
    location    "2.5";
    object      rho;
}
// * * * * * * * * * * * * * * * * * * * * * * * * * * * * * * * * * * * * * //

dimensions      [1 -3 0 0 0 0 0];

internalField   nonuniform List<scalar> 
1200
(
1.39997
1.39997
1.39997
1.39997
1.39997
1.39997
1.39997
1.39997
1.39997
1.39997
3.04416
5.30726
5.47128
5.54725
5.63674
5.71571
5.78453
5.83336
5.86693
5.89706
1.39997
1.39997
1.39997
1.39997
1.39997
1.39997
1.39997
1.39997
1.39997
1.39997
3.03324
5.29797
5.46944
5.54594
5.63539
5.71392
5.78209
5.83023
5.86298
5.89284
1.39997
1.39997
1.39997
1.39997
1.39997
1.39997
1.39997
1.39997
1.39997
1.39997
3.01183
5.28447
5.46439
5.54198
5.63182
5.71016
5.77777
5.82519
5.85678
5.88631
1.39997
1.39997
1.39997
1.39997
1.39997
1.39997
1.39997
1.39997
1.39997
1.39997
2.98221
5.26959
5.45811
5.53639
5.62649
5.70439
5.77109
5.81757
5.84753
5.8764
1.39997
1.39997
1.39997
1.39997
1.39997
1.39997
1.39997
1.39997
1.39997
1.39997
2.94505
5.25577
5.45103
5.52916
5.61925
5.6967
5.76248
5.80784
5.83557
5.86394
1.39997
1.39997
1.39997
1.39997
1.39997
1.39997
1.39997
1.39997
1.39997
1.39997
2.8997
5.24236
5.44383
5.52062
5.61004
5.68671
5.75153
5.79599
5.82142
5.84856
1.39997
1.39997
1.39997
1.39997
1.39997
1.39997
1.39997
1.39997
1.39997
1.39997
2.84523
5.22542
5.43679
5.5114
5.59949
5.67486
5.73821
5.78129
5.80427
5.83139
1.39997
1.39997
1.39997
1.39997
1.39997
1.39997
1.39997
1.39997
1.39997
1.39997
2.78113
5.20114
5.42959
5.50166
5.58774
5.66126
5.72288
5.76459
5.78481
5.81013
1.39997
1.39997
1.39997
1.39997
1.39997
1.39997
1.39997
1.39997
1.39997
1.39997
2.70764
5.16762
5.42195
5.49187
5.57543
5.64621
5.705
5.74441
5.76173
5.78721
1.39997
1.39997
1.39997
1.39997
1.39997
1.39997
1.39997
1.39997
1.39997
1.39997
2.62544
5.12651
5.41451
5.48262
5.56336
5.63068
5.68591
5.72274
5.73693
5.75972
1.39997
1.39997
1.39997
1.39997
1.39997
1.39997
1.39997
1.39997
1.39997
1.39997
2.53562
5.08059
5.40792
5.47351
5.55052
5.61348
5.66402
5.69686
5.70716
5.72934
1.39997
1.39997
1.39997
1.39997
1.39997
1.39997
1.39997
1.39997
1.39997
1.39997
2.43901
5.03094
5.40235
5.46443
5.5373
5.59549
5.64063
5.66903
5.67474
5.69212
1.39997
1.39997
1.39997
1.39997
1.39997
1.39997
1.39997
1.39997
1.39997
1.39997
2.33695
4.97497
5.39725
5.45449
5.52232
5.57509
5.61346
5.63544
5.63505
5.65035
1.39997
1.39997
1.39997
1.39997
1.39997
1.39997
1.39997
1.39997
1.39997
1.39997
2.22698
4.90681
5.39131
5.44375
5.50684
5.55372
5.58379
5.59782
5.59044
5.59805
1.39997
1.39997
1.39997
1.39997
1.39997
1.39997
1.39997
1.39997
1.39997
1.39997
2.11282
4.81989
5.38312
5.43037
5.48941
5.53021
5.55083
5.55401
5.53509
5.53747
1.39997
1.39997
1.39997
1.39997
1.39997
1.39997
1.39997
1.39997
1.39997
1.39997
1.9893
4.71919
5.37837
5.41548
5.46772
5.50276
5.51366
5.50564
5.47216
5.4568
1.39997
1.39997
1.39997
1.39997
1.39997
1.39997
1.39997
1.39997
1.39997
1.39997
1.87677
4.62479
5.38214
5.40256
5.44667
5.47391
5.47343
5.45001
5.39208
5.35757
1.39997
1.39997
1.39997
1.39997
1.39997
1.39997
1.39997
1.39997
1.39997
1.39997
1.74492
4.56674
5.40824
5.39394
5.42517
5.44489
5.43073
5.39056
5.30408
5.22706
1.39997
1.39997
1.39997
1.39997
1.39997
1.39997
1.39997
1.39997
1.39997
1.39997
1.59123
4.51663
5.42462
5.37675
5.40375
5.41397
5.38871
5.3274
5.19217
5.03537
1.39997
1.39997
1.39997
1.39997
1.39997
1.39997
1.39997
1.39997
1.39997
1.39997
1.44254
4.33967
5.3996
5.36129
5.38546
5.3835
5.34617
5.25715
5.08456
4.8125
1.39997
1.39997
1.39997
1.39997
1.39997
1.39997
1.39997
1.39997
1.39997
1.39997
1.4018
3.64841
5.26597
5.30177
5.31588
5.3019
5.24017
5.09473
4.81849
3.83562
1.39997
1.39997
1.39997
1.39997
1.39997
1.39997
1.39997
1.39997
1.39997
1.39997
1.39997
2.58488
4.9804
5.23783
5.22216
5.18604
5.0713
4.85546
4.52536
3.74003
1.39997
1.39997
1.39997
1.39997
1.39997
1.39997
1.39997
1.39997
1.39997
1.39997
1.39997
1.60569
4.41038
5.21071
5.12791
5.05231
4.90269
4.68007
4.32411
3.71319
1.39997
1.39997
1.39997
1.39997
1.39997
1.39997
1.39997
1.39997
1.39997
1.39997
1.39997
1.40418
3.21734
4.98569
4.96909
4.89681
4.74405
4.53975
4.18409
3.73836
1.39997
1.39997
1.39997
1.39997
1.39997
1.39997
1.39997
1.39997
1.39997
1.39997
1.39997
1.39994
1.76056
4.48043
5
4.83289
4.65832
4.43589
4.12905
3.77346
1.39997
1.39997
1.39997
1.39997
1.39997
1.39997
1.39997
1.39997
1.39997
1.39997
1.39997
1.39996
1.41291
3.12217
4.79595
4.73374
4.56238
4.35492
4.09938
3.80755
1.39997
1.39997
1.39997
1.39997
1.39997
1.39997
1.39997
1.39997
1.39997
1.39997
1.39997
1.39997
1.39997
1.70581
3.98655
4.75192
4.57109
4.364
4.12298
3.85797
1.39997
1.39997
1.39997
1.39997
1.39997
1.39997
1.39997
1.39997
1.39997
1.39997
1.39997
1.39997
1.39997
1.40841
2.2562
4.3866
4.59381
4.38616
4.16573
3.92379
1.39997
1.39997
1.39997
1.39997
1.39997
1.39997
1.39997
1.39997
1.39997
1.39997
1.39997
1.39997
1.39997
1.4
1.4717
2.93961
4.49008
4.45306
4.23568
4.0148
1.39997
1.39997
1.39997
1.39997
1.39997
1.39997
1.39997
1.39997
1.39997
1.39997
1.39997
1.39997
1.39997
1.39997
1.40066
1.64742
3.38469
4.44247
4.34208
4.11899
1.39997
1.39997
1.39997
1.39997
1.39997
1.39997
1.39997
1.39997
1.39997
1.39997
1.39997
1.39997
1.39997
1.39997
1.39997
1.40608
1.85001
3.61742
4.32168
4.23612
1.39997
1.39997
1.39997
1.39997
1.39997
1.39997
1.39997
1.39997
1.39997
1.39997
1.39997
1.39997
1.39997
1.39997
1.39997
1.4
1.41885
2.02732
3.67642
4.22266
1.39997
1.39997
1.39997
1.39997
1.39997
1.39997
1.39997
1.39997
1.39997
1.39997
1.39997
1.39997
1.39997
1.39997
1.39997
1.39997
1.40009
1.43756
2.12688
3.70669
1.39997
1.39997
1.39997
1.39997
1.39997
1.39997
1.39997
1.39997
1.39997
1.39997
1.39997
1.39997
1.39997
1.39997
1.39997
1.39997
1.39997
1.40035
1.44924
2.30749
1.39997
1.39997
1.39997
1.39997
1.39997
1.39997
1.39997
1.39997
1.39997
1.39997
1.39997
1.39997
1.39997
1.39997
1.39997
1.39997
1.39997
1.39997
1.40046
1.48894
1.39997
1.39997
1.39997
1.39997
1.39997
1.39997
1.39997
1.39997
1.39997
1.39997
1.39997
1.39997
1.39997
1.39997
1.39997
1.39997
1.39997
1.39997
1.39997
1.40085
1.39997
1.39997
1.39997
1.39997
1.39997
1.39997
1.39997
1.39997
1.39997
1.39997
1.39997
1.39997
1.39997
1.39997
1.39997
1.39997
1.39997
1.39997
1.39997
1.39997
1.39997
1.39997
1.39997
1.39997
1.39997
1.39997
1.39997
1.39997
1.39997
1.39997
1.39997
1.39997
1.39997
1.39997
1.39997
1.39997
1.39997
1.39997
1.39997
1.39997
1.39997
1.39997
1.39997
1.39997
1.39997
1.39997
1.39997
1.39997
1.39997
1.39997
1.39997
1.39997
1.39997
1.39997
1.39997
1.39997
1.39997
1.39997
1.39997
1.39997
1.39997
1.39997
1.39997
1.39997
1.39997
1.39997
1.39997
1.39997
1.39997
1.39997
1.39997
1.39997
1.39997
1.39997
1.39997
1.39997
1.39997
1.39997
1.39997
1.39997
0.897883
0.809118
0.873991
0.933566
0.976782
0.995938
1.00123
1.51804
2.61735
2.94863
2.7961
2.64344
2.46722
2.32068
2.18995
2.07166
1.95537
1.83643
1.73299
1.57916
1.83115
1.01229
0.936563
0.956739
0.984835
0.999497
1.02967
1.56307
2.58196
2.95723
2.84058
2.6715
2.50091
2.34754
2.21304
2.09036
1.96939
1.84738
1.74355
1.58907
2.3382
1.25724
1.0141
1.02221
1.03611
1.04929
1.12851
1.6373
2.56546
3.12986
2.97344
2.77475
2.58623
2.41818
2.27131
2.13566
2.00409
1.8765
1.77204
1.61421
2.67115
1.64632
1.19115
1.0896
1.08299
1.09742
1.30409
1.78668
2.32582
3.05824
3.08966
2.85904
2.67378
2.51196
2.35908
2.21398
2.07378
1.93869
1.82824
1.66058
2.91486
1.93685
1.39382
1.18141
1.12435
1.14747
1.54734
2.00194
2.13438
2.74291
3.06848
2.93165
2.74795
2.58776
2.43722
2.29114
2.14553
2.00271
1.88586
1.71128
3.08545
2.14828
1.64547
1.32894
1.16989
1.22057
1.7935
2.16987
2.1574
2.33015
2.86586
2.94603
2.79091
2.63536
2.48561
2.34052
2.19357
2.04983
1.93281
1.7568
3.20935
2.34037
1.85896
1.45508
1.22702
1.3728
1.99636
2.24561
2.18414
2.11988
2.49073
2.85644
2.81127
2.67257
2.51378
2.36524
2.22137
2.08086
1.96329
1.78577
3.30587
2.51606
2.04008
1.58549
1.32968
1.66629
2.17593
2.26849
2.1865
2.04715
2.14353
2.59224
2.78091
2.67662
2.52562
2.37473
2.23186
2.09635
1.98159
1.80638
3.39879
2.69093
2.19407
1.7057
1.48506
2.02063
2.31545
2.27444
2.17264
2.02769
1.96345
2.21551
2.64534
2.66344
2.53681
2.38515
2.24149
2.10652
1.9925
1.81986
3.49072
2.87329
2.30875
1.82878
1.79959
2.43546
2.43005
2.30693
2.16604
2.02485
1.90542
1.93576
2.30325
2.58773
2.52889
2.3912
2.25032
2.11696
2.00304
1.83112
3.61191
3.0621
2.38971
1.96521
2.26967
2.77742
2.59369
2.36864
2.17804
2.03564
1.89055
1.80829
1.9316
2.33752
2.4581
2.38412
2.25607
2.12339
2.00985
1.8412
3.78221
3.22234
2.46591
2.17016
2.86784
3.00185
2.75677
2.45928
2.21218
2.04105
1.89612
1.78359
1.74165
1.96114
2.33537
2.36323
2.26656
2.13883
2.02142
1.84978
3.91042
3.37263
2.58674
2.59262
3.43711
3.20857
2.86665
2.54081
2.27125
2.06825
1.91569
1.7732
1.67906
1.70032
2.00162
2.28337
2.25804
2.15472
2.04066
1.86932
3.83811
3.52781
2.76121
3.27877
3.87856
3.43204
2.98031
2.62684
2.34549
2.11607
1.94097
1.79385
1.66736
1.58962
1.67624
2.01227
2.18863
2.1521
2.05167
1.89089
3.54566
3.40731
2.98241
4.05263
4.1149
3.60377
3.09335
2.7101
2.41842
2.17785
1.97861
1.8189
1.67062
1.56238
1.51956
1.68214
2.03598
2.10459
2.05184
1.91072
3.09168
3.16247
3.51699
4.79166
4.2904
3.72981
3.21635
2.81629
2.50996
2.25759
2.03656
1.85233
1.69213
1.54451
1.45485
1.46188
1.71292
2.0157
2.03458
1.93502
2.56514
3.01373
4.38997
5.24831
4.4652
3.86094
3.34638
2.92814
2.59438
2.31902
2.08156
1.8747
1.7006
1.55315
1.43288
1.36726
1.4341
1.73832
1.95204
1.92637
2.02833
3.07444
5.27822
5.57372
4.68096
3.99421
3.45194
3.01517
2.66166
2.37054
2.12392
1.90215
1.7126
1.56432
1.42704
1.34588
1.31408
1.42854
1.74453
1.87041
1.57545
3.13465
6.21958
5.82011
4.85
4.084
3.52085
3.0761
2.71011
2.40472
2.15346
1.93614
1.75815
1.60488
1.47051
1.36057
1.2677
1.27247
1.45976
1.84654
1.41348
3.55464
7.34252
6.13649
4.92236
4.09139
3.52845
3.08995
2.72308
2.41277
2.15304
1.92624
1.72313
1.56254
1.43492
1.32655
1.216
1.19319
1.26341
1.81682
)
;

boundaryField
{
    inlet
    {
        type            calculated;
        value           uniform 1.39997;
    }
    outlet
    {
        type            calculated;
        value           nonuniform List<scalar> 
20
(
1.57923
1.58912
1.61423
1.66062
1.71132
1.75685
1.78584
1.80645
1.8199
1.83115
1.84119
1.84982
1.86937
1.8909
1.91074
1.93525
1.92656
1.87082
1.84767
1.81905
)
;
    }
    bottom
    {
        type            symmetryPlane;
    }
    top
    {
        type            symmetryPlane;
    }
    obstacle
    {
        type            calculated;
        value           nonuniform List<scalar> 
40
(
5.89706
5.89284
5.88631
5.8764
5.86394
5.84856
5.83139
5.81013
5.78721
5.75972
5.72934
5.69212
5.65035
5.59805
5.53747
5.4568
5.35757
5.22706
5.03537
4.8125
0.897883
0.809118
0.873991
0.933566
0.976782
0.995938
1.00123
1.51804
2.61735
2.94863
2.7961
2.64344
2.46722
2.32068
2.18995
2.07166
1.95537
1.83643
1.73299
1.57916
)
;
    }
    defaultFaces
    {
        type            empty;
    }
}


// ************************************************************************* //
