/*--------------------------------*- C++ -*----------------------------------*\
  =========                 |
  \\      /  F ield         | OpenFOAM: The Open Source CFD Toolbox
   \\    /   O peration     | Website:  https://openfoam.org
    \\  /    A nd           | Version:  6.0
     \\/     M anipulation  |
\*---------------------------------------------------------------------------*/
FoamFile
{
    version     2.0;
    format      ascii;
    class       volScalarField;
    location    "2.5";
    object      T;
}
// * * * * * * * * * * * * * * * * * * * * * * * * * * * * * * * * * * * * * //

dimensions      [0 0 0 1 0 0 0];

internalField   nonuniform List<scalar> 
1200
(
1
1
1
1
1
1
1
1
1
1
1.97229
2.69465
2.73539
2.7488
2.76318
2.77585
2.79005
2.80623
2.82234
2.83327
1
1
1
1
1
1
1
1
1
1
1.97148
2.69471
2.73549
2.74869
2.76296
2.77553
2.78963
2.80569
2.82161
2.83248
1
1
1
1
1
1
1
1
1
1
1.96701
2.69525
2.73564
2.74843
2.76253
2.77499
2.78898
2.80489
2.82054
2.8313
1
1
1
1
1
1
1
1
1
1
1.95652
2.69413
2.7358
2.74825
2.76209
2.7743
2.78805
2.80372
2.81899
2.82955
1
1
1
1
1
1
1
1
1
1
1.94007
2.68987
2.73547
2.74791
2.76159
2.77351
2.78693
2.80227
2.817
2.82739
1
1
1
1
1
1
1
1
1
1
1.91854
2.68222
2.73429
2.74713
2.76079
2.77243
2.78548
2.8005
2.81468
2.82475
1
1
1
1
1
1
1
1
1
1
1.89301
2.67245
2.73216
2.74569
2.75953
2.77095
2.78361
2.79823
2.81185
2.82184
1
1
1
1
1
1
1
1
1
1
1.86464
2.66215
2.72931
2.74337
2.75746
2.76883
2.78126
2.7956
2.80863
2.81821
1
1
1
1
1
1
1
1
1
1
1.83368
2.65181
2.72589
2.7401
2.75439
2.76586
2.77816
2.79223
2.80474
2.81432
1
1
1
1
1
1
1
1
1
1
1.79864
2.64058
2.72185
2.73593
2.75035
2.76207
2.77444
2.78845
2.80054
2.80959
1
1
1
1
1
1
1
1
1
1
1.75736
2.62668
2.71694
2.73078
2.74521
2.7572
2.76969
2.78361
2.79534
2.80437
1
1
1
1
1
1
1
1
1
1
1.70821
2.6085
2.71109
2.72484
2.73924
2.75147
2.76407
2.77807
2.78961
2.79789
1
1
1
1
1
1
1
1
1
1
1.65217
2.58587
2.70485
2.71843
2.7325
2.74473
2.75726
2.77111
2.78235
2.79056
1
1
1
1
1
1
1
1
1
1
1.59063
2.56052
2.69932
2.71227
2.72568
2.73752
2.74988
2.7635
2.77384
2.78081
1
1
1
1
1
1
1
1
1
1
1.52432
2.53388
2.69484
2.70651
2.71892
2.72999
2.74206
2.75485
2.76291
2.76908
1
1
1
1
1
1
1
1
1
1
1.45205
2.50535
2.69075
2.70109
2.71211
2.72235
2.73384
2.74503
2.75031
2.75341
1
1
1
1
1
1
1
1
1
1
1.36217
2.46062
2.68356
2.69507
2.70606
2.71539
2.72559
2.7334
2.73365
2.73339
1
1
1
1
1
1
1
1
1
1
1.23808
2.39521
2.67156
2.68607
2.69941
2.70894
2.71618
2.72049
2.71454
2.7027
1
1
1
1
1
1
1
1
1
1
1.10032
2.33382
2.65168
2.67045
2.69015
2.70172
2.70605
2.70614
2.691
2.65818
1
1
1
1
1
1
1
1
1
1
1.01594
2.30297
2.63363
2.65584
2.67929
2.69266
2.69444
2.6902
2.67533
2.64884
1
1
1
1
1
1
1
1
1
1
1.00069
2.14878
2.60884
2.63373
2.65041
2.66141
2.65923
2.64595
2.62569
2.58352
1
1
1
1
1
1
1
1
1
1
1
1.73139
2.5188
2.60746
2.61241
2.6141
2.60231
2.57373
2.53567
2.44643
1
1
1
1
1
1
1
1
1
1
1
1.12267
2.30643
2.57903
2.57338
2.56858
2.54886
2.51462
2.45612
2.34696
1
1
1
1
1
1
1
1
1
1
1
1.00236
1.96025
2.49256
2.52844
2.52079
2.49823
2.4646
2.39748
2.30774
1
1
1
1
1
1
1
1
1
1
1
0.999993
1.22117
2.26026
2.48975
2.47104
2.45247
2.41999
2.36336
2.29124
1
1
1
1
1
1
1
1
1
1
1
0.999998
1.00679
1.86808
2.3901
2.4149
2.39923
2.37365
2.33163
2.27649
1
1
1
1
1
1
1
1
1
1
1
1
1
1.17936
2.1108
2.37436
2.35307
2.32979
2.29755
2.25591
1
1
1
1
1
1
1
1
1
1
1
1
1
1.00417
1.45917
2.16422
2.3129
2.28404
2.25825
2.22706
1
1
1
1
1
1
1
1
1
1
1
1
1
1.00001
1.0369
1.72467
2.19238
2.25477
2.22631
2.19947
1
1
1
1
1
1
1
1
1
1
1
1
1
1
1.00027
1.13563
1.83898
2.19521
2.19072
2.16693
1
1
1
1
1
1
1
1
1
1
1
1
1
1
1
1.00271
1.23641
1.89901
2.14176
2.13685
1
1
1
1
1
1
1
1
1
1
1
1
1
1
1
1.00001
1.0086
1.31866
1.89354
2.0919
1
1
1
1
1
1
1
1
1
1
1
1
1
1
1
1
1.00004
1.0173
1.35042
1.90223
1
1
1
1
1
1
1
1
1
1
1
1
1
1
1
1
1
1.00013
1.0227
1.45686
1
1
1
1
1
1
1
1
1
1
1
1
1
1
1
1
1
1
1.00017
1.04506
1
1
1
1
1
1
1
1
1
1
1
1
1
1
1
1
1
1
1
1.00037
1
1
1
1
1
1
1
1
1
1
1
1
1
1
1
1
1
1
1
1
1
1
1
1
1
1
1
1
1
1
1
1
1
1
1
1
1
1
1
1
1
1
1
1
1
1
1
1
1
1
1
1
1
1
1
1
1
1
1
1
1
1
1
1
1
1
1
1
1
1
1
1
1
1
1
1
1
1
1
1
1.797
1.76942
1.79215
1.8093
1.82833
1.82597
1.81792
2.16359
2.66783
2.64479
2.5764
2.5203
2.45466
2.39009
2.32272
2.26102
2.2073
2.1576
2.11264
2.03565
2.14841
1.84166
1.76022
1.76583
1.77846
1.78423
1.79799
2.09131
2.54697
2.56902
2.5226
2.46882
2.41676
2.35951
2.29803
2.23986
2.18803
2.14014
2.0976
2.02439
2.0948
1.79373
1.67714
1.67817
1.68706
1.70154
1.75033
1.97748
2.31533
2.4716
2.42084
2.36921
2.32637
2.28023
2.22908
2.17777
2.13062
2.08769
2.05086
1.98637
2.07378
1.80731
1.64291
1.58564
1.58662
1.59952
1.71791
1.92228
2.0732
2.29489
2.3285
2.26248
2.22132
2.18372
2.14088
2.09659
2.05487
2.01629
1.98323
1.92659
2.0863
1.81951
1.63734
1.54444
1.52105
1.53712
1.75543
1.92559
1.93676
2.12402
2.23652
2.20118
2.15123
2.10734
2.06462
2.02272
1.98215
1.94338
1.91047
1.85847
2.10452
1.84285
1.67607
1.55397
1.49369
1.52182
1.83453
1.93203
1.9078
1.95881
2.12878
2.1553
2.10866
2.05807
2.01104
1.96745
1.92504
1.88459
1.85079
1.79965
2.11372
1.87891
1.72877
1.5749
1.49023
1.56532
1.88981
1.92638
1.89243
1.84731
1.97491
2.08598
2.07264
2.02737
1.9753
1.92852
1.88504
1.84341
1.80755
1.75402
2.10774
1.91242
1.77739
1.61134
1.51871
1.69855
1.9194
1.91096
1.86254
1.78818
1.81175
1.95969
2.02104
1.99155
1.94413
1.89673
1.85304
1.81215
1.77637
1.72192
2.09383
1.93963
1.81198
1.64354
1.57814
1.85733
1.93162
1.89356
1.82788
1.75237
1.70757
1.79174
1.93501
1.94809
1.9123
1.8679
1.82551
1.78562
1.75066
1.69702
2.07165
1.95938
1.82488
1.67212
1.69122
1.96843
1.94211
1.86934
1.7948
1.72342
1.66378
1.65605
1.78461
1.88163
1.87005
1.83608
1.79768
1.76014
1.7269
1.67522
2.04992
1.96948
1.81929
1.70721
1.86077
2.02101
1.9492
1.85545
1.7706
1.70113
1.63334
1.58251
1.62212
1.75981
1.808
1.79469
1.76434
1.73068
1.70035
1.65302
2.03823
1.96237
1.8047
1.75334
2.04312
2.03878
1.95631
1.84959
1.75284
1.6777
1.61044
1.55352
1.52091
1.59736
1.72496
1.74909
1.72893
1.69991
1.67156
1.62781
2.02123
1.94383
1.80326
1.83141
2.13194
2.05938
1.9511
1.84134
1.74189
1.65929
1.5901
1.52467
1.4756
1.46908
1.57779
1.67426
1.68908
1.66807
1.64192
1.60257
1.97831
1.93582
1.8114
1.99501
2.18017
2.07338
1.94794
1.83469
1.73309
1.64252
1.56742
1.50246
1.44438
1.40172
1.43219
1.54894
1.62051
1.62542
1.60807
1.57529
1.93714
1.90607
1.83955
2.19392
2.20046
2.07997
1.9412
1.8194
1.71496
1.62316
1.54498
1.4801
1.41969
1.37272
1.34969
1.40927
1.53192
1.57025
1.56805
1.54526
1.84669
1.85874
1.96698
2.32269
2.20959
2.06852
1.92425
1.79814
1.69349
1.60508
1.5276
1.46184
1.40404
1.34919
1.31381
1.30957
1.40295
1.5061
1.53346
1.51567
1.59513
1.79913
2.22144
2.36143
2.19118
2.03632
1.89425
1.77141
1.6691
1.58395
1.50998
1.44512
1.3893
1.3399
1.29561
1.26667
1.29137
1.40075
1.47737
1.48503
1.23927
1.69254
2.37624
2.34695
2.15257
1.9932
1.85968
1.74613
1.65031
1.56985
1.50091
1.43814
1.38283
1.33631
1.28891
1.25739
1.24092
1.28561
1.39822
1.44665
1.05232
1.60424
2.36885
2.29427
2.11567
1.96264
1.83935
1.7342
1.64286
1.56398
1.49892
1.44191
1.39366
1.34786
1.30338
1.26214
1.22547
1.21858
1.29083
1.43593
1.00367
1.63066
2.43718
2.28595
2.09877
1.94751
1.83009
1.72949
1.64011
1.56153
1.49559
1.43693
1.38103
1.33256
1.28937
1.24797
1.20398
1.18625
1.21376
1.43397
)
;

boundaryField
{
    inlet
    {
        type            fixedValue;
        value           uniform 1;
    }
    outlet
    {
        type            inletOutlet;
        inletValue      uniform 1;
        value           nonuniform List<scalar> 
20
(
2.03556
2.02432
1.98634
1.92655
1.85842
1.7996
1.75396
1.72186
1.69698
1.6752
1.65303
1.62778
1.60253
1.57529
1.54524
1.51549
1.48489
1.44633
1.43505
1.43221
)
;
    }
    bottom
    {
        type            symmetryPlane;
    }
    top
    {
        type            symmetryPlane;
    }
    obstacle
    {
        type            zeroGradient;
    }
    defaultFaces
    {
        type            empty;
    }
}


// ************************************************************************* //
