/*--------------------------------*- C++ -*----------------------------------*\
  =========                 |
  \\      /  F ield         | OpenFOAM: The Open Source CFD Toolbox
   \\    /   O peration     | Website:  https://openfoam.org
    \\  /    A nd           | Version:  6.0
     \\/     M anipulation  |
\*---------------------------------------------------------------------------*/
FoamFile
{
    version     2.0;
    format      ascii;
    class       volVectorField;
    location    "2.5";
    object      U;
}
// * * * * * * * * * * * * * * * * * * * * * * * * * * * * * * * * * * * * * //

dimensions      [0 1 -1 0 0 0 0];

internalField   nonuniform List<vector> 
1200
(
(3 1.5902e-15 0)
(3 -1.25977e-15 0)
(3 -2.32334e-15 0)
(3 -2.08584e-15 0)
(3 -8.46729e-16 0)
(3 3.61409e-16 0)
(3 8.26077e-17 0)
(3 -3.20105e-16 0)
(3 -1.96193e-16 0)
(3 -7.43469e-16 0)
(1.61567 0.00724333 0)
(0.753191 0.00873303 0)
(0.659597 0.0105752 0)
(0.59205 0.011159 0)
(0.518136 0.0116946 0)
(0.442128 0.0123522 0)
(0.362011 0.0131389 0)
(0.274385 0.0149232 0)
(0.174889 0.0167758 0)
(0.0679667 0.0200058 0)
(3 5.67928e-16 0)
(3 -1.0326e-16 0)
(3 -3.71735e-15 0)
(3 -2.72605e-15 0)
(3 -1.94128e-15 0)
(3 2.40595e-15 0)
(3 3.51083e-16 0)
(3 -1.05325e-15 0)
(3 -6.81514e-16 0)
(3 -6.81514e-16 0)
(1.61203 0.0250446 0)
(0.74576 0.026665 0)
(0.650626 0.0292497 0)
(0.583159 0.0313138 0)
(0.509669 0.0334359 0)
(0.434564 0.0360708 0)
(0.355885 0.0390665 0)
(0.270291 0.0449538 0)
(0.172723 0.0509511 0)
(0.0676048 0.0608741 0)
(3 7.22817e-17 0)
(3 1.44563e-16 0)
(3 -3.12877e-15 0)
(3 -8.67381e-16 0)
(3 -8.88033e-16 0)
(3 1.3527e-15 0)
(3 -1.50759e-15 0)
(3 -2.06519e-16 0)
(3 2.37497e-16 0)
(3 1.13586e-16 0)
(1.62076 0.046997 0)
(0.743331 0.0462373 0)
(0.644615 0.0495057 0)
(0.575544 0.0524616 0)
(0.500964 0.0555403 0)
(0.425454 0.0595179 0)
(0.347236 0.0641605 0)
(0.263426 0.0738552 0)
(0.168227 0.0839456 0)
(0.0665113 0.100691 0)
(3 1.75541e-16 0)
(3 4.44016e-16 0)
(3 5.98906e-16 0)
(3 -7.22817e-16 0)
(3 1.40433e-15 0)
(3 -1.30107e-15 0)
(3 -2.63312e-15 0)
(3 -9.60315e-16 0)
(3 2.78801e-16 0)
(3 1.5902e-15 0)
(1.64139 0.0694462 0)
(0.745745 0.0667629 0)
(0.643585 0.0704082 0)
(0.5727 0.0744532 0)
(0.496188 0.0785111 0)
(0.419 0.083593 0)
(0.339839 0.0893574 0)
(0.256783 0.102356 0)
(0.163273 0.116242 0)
(0.0651014 0.139616 0)
(3 5.16298e-17 0)
(3 1.44563e-15 0)
(3 4.70864e-15 0)
(3 2.56084e-15 0)
(3 -7.64121e-16 0)
(3 -3.17007e-15 0)
(3 -4.02713e-16 0)
(3 -1.27009e-15 0)
(3 5.78254e-16 0)
(3 2.92225e-15 0)
(1.67135 0.0909098 0)
(0.751077 0.0879028 0)
(0.646129 0.0916044 0)
(0.574171 0.0968806 0)
(0.496097 0.102181 0)
(0.416899 0.108513 0)
(0.335637 0.115074 0)
(0.251878 0.130766 0)
(0.158872 0.147921 0)
(0.0640964 0.177529 0)
(3 2.06519e-17 0)
(3 1.01194e-15 0)
(3 4.17169e-15 0)
(3 3.66572e-15 0)
(3 1.77607e-15 0)
(3 -2.17878e-15 0)
(3 2.83964e-15 0)
(3 4.2543e-15 0)
(3 7.95099e-15 0)
(3 3.03583e-15 0)
(1.70964 0.111018 0)
(0.758411 0.109019 0)
(0.650933 0.112929 0)
(0.5785 0.119457 0)
(0.499544 0.12618 0)
(0.418919 0.134063 0)
(0.335497 0.141548 0)
(0.250033 0.159681 0)
(0.155768 0.179493 0)
(0.0628329 0.214562 0)
(3 1.0326e-16 0)
(3 5.78254e-16 0)
(3 -3.20105e-16 0)
(3 1.10488e-15 0)
(3 -5.16298e-17 0)
(3 -2.00324e-15 0)
(3 -1.45596e-15 0)
(3 8.67381e-16 0)
(3 2.74671e-15 0)
(3 3.30431e-16 0)
(1.75542 0.129437 0)
(0.766509 0.129985 0)
(0.656025 0.134268 0)
(0.583515 0.142141 0)
(0.503953 0.150479 0)
(0.422213 0.160151 0)
(0.337089 0.16862 0)
(0.250565 0.189123 0)
(0.15531 0.211347 0)
(0.0636903 0.251324 0)
(3 6.19558e-17 0)
(3 4.13039e-16 0)
(3 -1.87933e-15 0)
(3 -3.39724e-15 0)
(3 -5.11135e-15 0)
(3 -4.09941e-15 0)
(3 -1.38368e-15 0)
(3 -2.01356e-15 0)
(3 -5.55537e-15 0)
(3 -4.97711e-15 0)
(1.80685 0.14697 0)
(0.773303 0.151607 0)
(0.657919 0.155865 0)
(0.585674 0.165046 0)
(0.506362 0.175112 0)
(0.42441 0.186815 0)
(0.337958 0.196396 0)
(0.250036 0.219165 0)
(0.153121 0.243442 0)
(0.062704 0.287995 0)
(3 -6.81514e-16 0)
(3 -1.18749e-15 0)
(3 -1.72444e-15 0)
(3 -1.61085e-15 0)
(3 -1.3114e-15 0)
(3 -3.35594e-15 0)
(3 -2.68475e-15 0)
(3 -3.10812e-15 0)
(3 -7.45535e-15 0)
(3 -8.96294e-15 0)
(1.86304 0.165299 0)
(0.778651 0.174468 0)
(0.656992 0.177351 0)
(0.585718 0.187616 0)
(0.507975 0.199518 0)
(0.427584 0.213621 0)
(0.34146 0.224722 0)
(0.253256 0.249933 0)
(0.154801 0.276091 0)
(0.0645301 0.32474 0)
(3 -1.34238e-16 0)
(3 -2.57117e-15 0)
(3 -1.42498e-15 0)
(3 -4.3369e-16 0)
(3 6.09232e-16 0)
(3 -3.71735e-16 0)
(3 -2.01356e-15 0)
(3 -2.36465e-15 0)
(3 -3.86191e-15 0)
(3 -4.56408e-15 0)
(1.92752 0.184931 0)
(0.785469 0.198943 0)
(0.656542 0.198835 0)
(0.587126 0.209872 0)
(0.512205 0.223551 0)
(0.434566 0.240265 0)
(0.34911 0.253412 0)
(0.259592 0.281612 0)
(0.157451 0.30993 0)
(0.0646896 0.362417 0)
(3 -2.89127e-16 0)
(3 -3.30431e-16 0)
(3 -1.89998e-15 0)
(3 -7.12492e-16 0)
(3 1.0326e-15 0)
(3 2.22008e-15 0)
(3 -3.09779e-17 0)
(3 -3.10812e-15 0)
(3 -3.41789e-15 0)
(3 -4.70864e-15 0)
(2.00493 0.205355 0)
(0.796944 0.225115 0)
(0.660203 0.220254 0)
(0.593378 0.231333 0)
(0.5219 0.24634 0)
(0.447288 0.265869 0)
(0.362259 0.282073 0)
(0.271076 0.314198 0)
(0.16478 0.345203 0)
(0.0681026 0.401427 0)
(3 -3.92387e-16 0)
(3 6.81514e-16 0)
(3 -4.3369e-16 0)
(3 1.02227e-15 0)
(3 5.67928e-16 0)
(3 2.16845e-16 0)
(3 -9.49989e-16 0)
(3 -3.59344e-15 0)
(3 -6.05101e-15 0)
(3 -5.20429e-15 0)
(2.09782 0.223489 0)
(0.814898 0.251944 0)
(0.668694 0.240864 0)
(0.603505 0.251488 0)
(0.534368 0.268004 0)
(0.462159 0.291188 0)
(0.377351 0.311726 0)
(0.284089 0.348892 0)
(0.172015 0.383422 0)
(0.0687712 0.442824 0)
(3 -5.16298e-17 0)
(3 0 0)
(3 1.10488e-15 0)
(3 3.00486e-15 0)
(3 7.84773e-16 0)
(3 7.95099e-16 0)
(3 5.16298e-17 0)
(3 -2.04454e-15 0)
(3 -4.02713e-15 0)
(3 -3.09779e-17 0)
(2.20038 0.237418 0)
(0.836509 0.279171 0)
(0.678543 0.261308 0)
(0.613609 0.271425 0)
(0.54637 0.289076 0)
(0.477729 0.315587 0)
(0.395081 0.34105 0)
(0.302246 0.384046 0)
(0.186085 0.423558 0)
(0.0744831 0.486868 0)
(3 2.06519e-17 0)
(3 1.85867e-16 0)
(3 1.12553e-15 0)
(3 1.9103e-15 0)
(3 4.80157e-15 0)
(3 4.58473e-15 0)
(3 7.02166e-16 0)
(3 -1.02227e-15 0)
(3 1.85867e-15 0)
(3 3.6967e-15 0)
(2.30855 0.248143 0)
(0.858226 0.307822 0)
(0.687162 0.282172 0)
(0.622314 0.291569 0)
(0.555739 0.310074 0)
(0.490008 0.340075 0)
(0.410465 0.371321 0)
(0.318599 0.421495 0)
(0.197805 0.468379 0)
(0.0763608 0.535641 0)
(3 1.23912e-16 0)
(3 3.82061e-16 0)
(3 7.95099e-16 0)
(3 -3.40757e-16 0)
(3 1.73476e-15 0)
(3 4.21299e-15 0)
(3 4.5331e-15 0)
(3 4.78092e-15 0)
(3 3.11844e-15 0)
(3 2.4266e-15 0)
(2.42487 0.25537 0)
(0.884282 0.336713 0)
(0.695944 0.302281 0)
(0.631485 0.311259 0)
(0.566055 0.330094 0)
(0.50354 0.362787 0)
(0.428571 0.399643 0)
(0.339258 0.45845 0)
(0.216498 0.515372 0)
(0.0862239 0.588923 0)
(3 -2.58149e-16 0)
(3 -1.23912e-16 0)
(3 2.06519e-17 0)
(3 -2.34399e-15 0)
(3 -5.20429e-15 0)
(3 -1.3114e-15 0)
(3 6.71188e-16 0)
(3 1.17716e-15 0)
(3 8.98359e-16 0)
(3 1.78639e-15 0)
(2.54769 0.261571 0)
(0.90817 0.370995 0)
(0.698725 0.324595 0)
(0.634565 0.332502 0)
(0.570385 0.350595 0)
(0.513575 0.385352 0)
(0.444261 0.427712 0)
(0.359926 0.496957 0)
(0.234117 0.568443 0)
(0.0894678 0.650759 0)
(3 3.09779e-16 0)
(3 9.70641e-16 0)
(3 1.44563e-16 0)
(3 -3.42822e-15 0)
(3 -4.74994e-15 0)
(3 -2.80866e-15 0)
(3 -7.22817e-17 0)
(3 -4.8532e-16 0)
(3 3.72767e-15 0)
(3 1.75541e-15 0)
(2.71393 0.257386 0)
(0.958679 0.407847 0)
(0.721486 0.348822 0)
(0.651135 0.355462 0)
(0.580738 0.371295 0)
(0.525407 0.405788 0)
(0.459595 0.454385 0)
(0.38524 0.534485 0)
(0.262262 0.62381 0)
(0.1041 0.720408 0)
(3 8.05425e-16 0)
(3 7.33143e-16 0)
(3 -3.71735e-16 0)
(3 -2.13747e-15 0)
(3 2.00324e-15 0)
(3 1.28042e-15 0)
(3 7.95099e-16 0)
(3 1.72444e-15 0)
(3 1.43531e-15 0)
(3 -1.93096e-15 0)
(2.92829 0.208055 0)
(1.05093 0.438381 0)
(0.783724 0.367748 0)
(0.694293 0.380199 0)
(0.604744 0.394156 0)
(0.539165 0.427358 0)
(0.476876 0.479848 0)
(0.412161 0.570826 0)
(0.292006 0.687575 0)
(0.11176 0.808103 0)
(3 7.74447e-16 0)
(3 -4.23365e-16 0)
(3 -2.64345e-15 0)
(3 1.20814e-15 0)
(3 1.8277e-15 0)
(3 8.88033e-16 0)
(3 4.3369e-16 0)
(3 2.64345e-15 0)
(3 1.5902e-15 0)
(3 7.12492e-16 0)
(3.08511 0.0933706 0)
(1.16042 0.439471 0)
(0.857695 0.392838 0)
(0.75633 0.412705 0)
(0.646114 0.421705 0)
(0.563605 0.450407 0)
(0.498699 0.504189 0)
(0.442535 0.606168 0)
(0.341651 0.751641 0)
(0.136617 0.910451 0)
(3 9.29337e-17 0)
(3 4.3369e-16 0)
(3 1.32172e-15 0)
(3 4.5331e-15 0)
(3 2.82931e-15 0)
(3 1.80704e-15 0)
(3 3.57278e-15 0)
(3 3.65539e-15 0)
(3 2.64345e-15 0)
(3 1.97226e-15 0)
(3.05798 0.0153839 0)
(1.21799 0.423892 0)
(0.870674 0.431803 0)
(0.796913 0.450318 0)
(0.69325 0.453409 0)
(0.600318 0.476524 0)
(0.528225 0.528122 0)
(0.480597 0.636082 0)
(0.409539 0.818188 0)
(0.21001 1.07207 0)
(3 -2.16845e-16 0)
(3 1.44563e-16 0)
(3 1.02227e-15 0)
(3 1.43531e-15 0)
(3 1.40949e-15 0)
(3 1.47919e-15 0)
(3 1.26751e-15 0)
(3 3.51083e-16 0)
(3 1.13586e-16 0)
(3 -1.57471e-16 0)
(3.00486 0.000287382 0)
(1.40603 0.440936 0)
(0.853724 0.473516 0)
(0.801503 0.503331 0)
(0.742566 0.523122 0)
(0.679502 0.541758 0)
(0.619673 0.587394 0)
(0.582324 0.706271 0)
(0.605928 0.896531 0)
(0.702385 1.1495 0)
(3 2.83964e-17 0)
(3 1.2133e-16 0)
(3 -4.38853e-16 0)
(3 -7.35725e-16 0)
(3 -5.85998e-16 0)
(3 -7.22817e-17 0)
(3 -1.172e-15 0)
(3 -9.19011e-16 0)
(3 -1.17716e-15 0)
(3 -2.20201e-15 0)
(3.00002 -8.28516e-08 0)
(2.11308 0.459396 0)
(0.92888 0.553158 0)
(0.834252 0.556026 0)
(0.818203 0.597551 0)
(0.786681 0.631451 0)
(0.769746 0.680424 0)
(0.769596 0.772496 0)
(0.86244 0.905119 0)
(1.11395 1.01738 0)
(3 4.64668e-17 0)
(3 1.44563e-16 0)
(3 -6.60862e-16 0)
(3 -6.42791e-16 0)
(3 -4.54342e-16 0)
(3 -3.87224e-17 0)
(3 -6.66025e-16 0)
(3 1.29075e-17 0)
(3 6.35047e-16 0)
(3 7.02166e-16 0)
(3 -2.34556e-07 0)
(3.04643 0.108939 0)
(1.23502 0.614609 0)
(0.938666 0.570246 0)
(0.927633 0.624778 0)
(0.905431 0.66824 0)
(0.910667 0.721437 0)
(0.941572 0.789958 0)
(1.0489 0.869426 0)
(1.26946 0.935064 0)
(3 -2.19427e-16 0)
(3 -7.35725e-16 0)
(3 -5.31787e-16 0)
(3 -6.32465e-16 0)
(3 -8.93196e-16 0)
(3 -9.96456e-16 0)
(3 -5.96324e-16 0)
(3 -1.0042e-15 0)
(3 -8.26077e-17 0)
(3 1.83286e-15 0)
(3 -3.32452e-08 0)
(3.01474 0.000671406 0)
(1.778 0.588618 0)
(1.02191 0.688863 0)
(0.972822 0.695956 0)
(0.9828 0.7283 0)
(1.01077 0.771285 0)
(1.06859 0.816577 0)
(1.17744 0.865185 0)
(1.35144 0.898121 0)
(3 -1.0326e-17 0)
(3 -1.18232e-15 0)
(3 -8.88033e-16 0)
(3 -1.11004e-15 0)
(3 -1.71411e-15 0)
(3 -1.99033e-15 0)
(3 -2.86545e-16 0)
(3 -2.7622e-16 0)
(3 -3.84642e-16 0)
(3 -5.78254e-16 0)
(3 -1.07709e-09 0)
(3.00009 3.78022e-06 0)
(2.93053 0.196667 0)
(1.30207 0.726691 0)
(1.06157 0.713987 0)
(1.0771 0.728743 0)
(1.10295 0.769613 0)
(1.16116 0.808095 0)
(1.25626 0.844047 0)
(1.39089 0.866174 0)
(3 2.19427e-16 0)
(3 7.43469e-16 0)
(3 6.24721e-16 0)
(3 5.57602e-16 0)
(3 8.67381e-16 0)
(3 6.86677e-16 0)
(3 8.38985e-16 0)
(3 9.39663e-16 0)
(3 1.40691e-15 0)
(3 1.283e-15 0)
(3 -1.69768e-12 0)
(3.00001 -3.09475e-06 0)
(3.01878 0.0036241 0)
(1.9351 0.632849 0)
(1.15903 0.791792 0)
(1.13882 0.794523 0)
(1.17282 0.805857 0)
(1.22708 0.823413 0)
(1.30766 0.839733 0)
(1.41383 0.850761 0)
(3 -1.54889e-16 0)
(3 5.29206e-16 0)
(3 1.45854e-15 0)
(3 2.10133e-15 0)
(3 2.40595e-15 0)
(3 1.77607e-15 0)
(3 1.283e-15 0)
(3 1.42498e-15 0)
(3 1.19781e-15 0)
(3 1.96193e-15 0)
(3 1.38368e-15 0)
(3 -4.83163e-07 0)
(3.00012 3.90747e-05 0)
(2.95011 0.150829 0)
(1.57494 0.799759 0)
(1.2105 0.825499 0)
(1.25007 0.820871 0)
(1.28654 0.829817 0)
(1.35428 0.835495 0)
(1.4359 0.840261 0)
(3 -2.19427e-16 0)
(3 -7.04747e-16 0)
(3 -6.9184e-16 0)
(3 -4.77576e-16 0)
(3 -5.05972e-16 0)
(3 -3.79479e-16 0)
(3 -5.55021e-16 0)
(3 -5.05972e-16 0)
(3 -7.12492e-16 0)
(3 -4.59505e-16 0)
(3 -1.08164e-15 0)
(3 -2.29841e-08 0)
(3 -1.43157e-08 0)
(3.00588 0.00557566 0)
(2.61844 0.453113 0)
(1.44359 0.880799 0)
(1.30397 0.866272 0)
(1.35158 0.858473 0)
(1.40305 0.852242 0)
(1.46101 0.848572 0)
(3 1.18749e-16 0)
(3 2.19427e-16 0)
(3 1.18749e-16 0)
(3 -2.58149e-17 0)
(3 2.14264e-16 0)
(3 2.60731e-16 0)
(3 6.47954e-16 0)
(3 6.55699e-16 0)
(3 -6.45373e-17 0)
(3 2.47823e-16 0)
(3 -1.81479e-15 0)
(3 -1.20071e-10 0)
(3 -4.15525e-09 0)
(3.00002 3.91035e-05 0)
(3.01525 0.0318278 0)
(2.20477 0.681039 0)
(1.41719 0.895729 0)
(1.40201 0.895834 0)
(1.45969 0.875117 0)
(1.50152 0.862335 0)
(3 1.18749e-16 0)
(3 1.31656e-16 0)
(3 4.00131e-16 0)
(3 7.74447e-17 0)
(3 1.39401e-16 0)
(3 -1.39401e-16 0)
(3 4.18202e-16 0)
(3 3.20105e-16 0)
(3 1.16167e-16 0)
(3 -8.77707e-17 0)
(3 7.17654e-16 0)
(3 -9.3672e-14 0)
(3 -2.80874e-10 0)
(3 1.16875e-08 0)
(3.00032 0.000757565 0)
(2.96229 0.124112 0)
(1.97908 0.77474 0)
(1.48634 0.909642 0)
(1.49634 0.909281 0)
(1.54897 0.887111 0)
(3 -1.9103e-16 0)
(3 -4.23365e-16 0)
(3 -8.90614e-16 0)
(3 -6.60862e-16 0)
(3 -9.73222e-16 0)
(3 -1.29333e-15 0)
(3 -2.0084e-15 0)
(3 -3.0539e-15 0)
(3 -2.01356e-15 0)
(3 -2.56858e-15 0)
(3 -1.61859e-15 0)
(3 -2.48856e-15 0)
(3 -6.55799e-12 0)
(3 -5.25354e-12 0)
(3 8.06687e-07 0)
(3.00081 0.00528629 0)
(2.85367 0.2338 0)
(1.89587 0.828151 0)
(1.56413 0.928841 0)
(1.57454 0.926063 0)
(3 2.22008e-16 0)
(3 5.16298e-16 0)
(3 5.55021e-16 0)
(3 4.10457e-16 0)
(3 -1.47661e-15 0)
(3 -3.04616e-15 0)
(3 -3.96775e-15 0)
(3 -4.76027e-15 0)
(3 -3.90838e-15 0)
(3 -3.86965e-15 0)
(3 -2.8732e-15 0)
(3 2.58149e-17 0)
(3 -2.0843e-14 0)
(3 -1.26494e-12 0)
(3 2.02282e-10 0)
(3 1.91674e-05 0)
(2.99977 0.0131235 0)
(2.73552 0.330506 0)
(1.90695 0.85475 0)
(1.63571 0.939545 0)
(3 2.14264e-16 0)
(3 5.21461e-16 0)
(3 7.17654e-16 0)
(3 1.00678e-16 0)
(3 3.82061e-16 0)
(3 -7.48632e-17 0)
(3 5.83417e-16 0)
(3 1.34754e-15 0)
(3 7.0991e-16 0)
(3 2.40337e-15 0)
(3 2.31043e-15 0)
(3 2.69508e-15 0)
(3 1.94644e-15 0)
(3 -9.01637e-14 0)
(3 -7.54054e-14 0)
(3 1.04243e-08 0)
(2.99999 9.05941e-05 0)
(2.99284 0.0252616 0)
(2.7134 0.372683 0)
(1.89013 0.885404 0)
(3 3.76898e-16 0)
(3 -3.09779e-17 0)
(3 -1.64183e-15 0)
(3 -1.32689e-15 0)
(3 1.66764e-15 0)
(3 3.29656e-15 0)
(3 6.07941e-15 0)
(3 5.90645e-15 0)
(3 5.07779e-15 0)
(3 3.94968e-15 0)
(3 2.49114e-15 0)
(3 8.05425e-16 0)
(3 -1.11004e-15 0)
(3 -3.09779e-15 0)
(3 -2.36284e-14 0)
(3 1.14724e-12 0)
(3 6.36945e-08 0)
(2.99993 0.00032075 0)
(2.99661 0.0256566 0)
(2.57709 0.501273 0)
(3 1.60052e-16 0)
(3 -1.26493e-16 0)
(3 4.02713e-16 0)
(3 1.93612e-16 0)
(3 -3.56246e-16 0)
(3 -1.13586e-16 0)
(3 1.18749e-16 0)
(3 5.85998e-16 0)
(3 1.18749e-16 0)
(3 -7.0991e-16 0)
(3 -2.23557e-15 0)
(3 -2.71315e-15 0)
(3 -1.92837e-15 0)
(3 -6.19558e-17 0)
(3 -1.8974e-15 0)
(3 -1.85351e-15 0)
(3 1.44575e-11 0)
(3 2.51041e-07 0)
(2.99995 0.000516077 0)
(3.00681 0.0347147 0)
(3 -6.99584e-16 0)
(3 -4.28528e-16 0)
(3 5.78254e-16 0)
(3 1.06874e-15 0)
(3 -4.13039e-17 0)
(3 -3.22686e-16 0)
(3 -1.86384e-15 0)
(3 -1.5618e-15 0)
(3 -1.56438e-15 0)
(3 -1.66248e-15 0)
(3 -1.67281e-15 0)
(3 -1.07132e-15 0)
(3 -1.19781e-15 0)
(3 -1.41982e-16 0)
(3 -1.39401e-16 0)
(3 -1.08939e-15 0)
(3 1.22621e-15 0)
(3 5.82158e-11 0)
(3 1.02831e-06 0)
(3.00089 0.00028721 0)
(3 -1.70378e-16 0)
(3 -4.49179e-16 0)
(3 -9.68059e-16 0)
(3 -6.0665e-16 0)
(3 -5.05972e-16 0)
(3 -5.42113e-17 0)
(3 -3.84642e-16 0)
(3 -4.54342e-16 0)
(3 -1.12295e-15 0)
(3 -7.74447e-16 0)
(3 1.75541e-16 0)
(3 -1.01969e-15 0)
(3 -3.48759e-15 0)
(3 -5.22494e-15 0)
(3 -2.98162e-15 0)
(3 -2.48856e-15 0)
(3 -2.98679e-15 0)
(3 1.75283e-15 0)
(3 4.5723e-10 0)
(3 1.75052e-07 0)
(3 1.96193e-16 0)
(3 4.95646e-16 0)
(3 5.03391e-16 0)
(3 6.42791e-16 0)
(3 8.95777e-16 0)
(3 6.53117e-16 0)
(3 1.45596e-15 0)
(3 1.63925e-15 0)
(3 6.32465e-16 0)
(3 7.58958e-16 0)
(3 5.91161e-16 0)
(3 7.04747e-16 0)
(3 1.53599e-15 0)
(3 2.10908e-15 0)
(3 2.08326e-15 0)
(3 1.92837e-15 0)
(3 1.09972e-15 0)
(3 1.70378e-16 0)
(3 4.24191e-14 0)
(3 1.27098e-11 0)
(3 6.97003e-17 0)
(3 3.1236e-16 0)
(3 5.21461e-16 0)
(3 2.71057e-16 0)
(3 3.74316e-16 0)
(3 3.71735e-16 0)
(3 3.22686e-16 0)
(3 2.2459e-16 0)
(3 6.68606e-16 0)
(3 1.43015e-15 0)
(3 1.95161e-15 0)
(3 3.2501e-15 0)
(3 4.93323e-15 0)
(3 5.92452e-15 0)
(3 5.68961e-15 0)
(3 5.55279e-15 0)
(3 4.78092e-15 0)
(3 2.39046e-15 0)
(3 3.58569e-15 0)
(3 -2.10617e-12 0)
(3 -2.73638e-16 0)
(3 -2.86545e-16 0)
(3 -4.05294e-16 0)
(3 -5.93743e-16 0)
(3 -7.7961e-16 0)
(3 -6.01487e-16 0)
(3 -1.16683e-15 0)
(3 -1.51017e-15 0)
(3 -1.34238e-15 0)
(3 -7.53795e-16 0)
(3 1.41982e-16 0)
(3 5.05972e-16 0)
(3 9.16429e-16 0)
(3 9.60315e-16 0)
(3 1.93096e-15 0)
(3 1.82253e-15 0)
(3 2.06261e-15 0)
(3 1.2417e-15 0)
(3 2.72864e-15 0)
(3 -2.69108e-13 0)
(1.69762 1.24854 0)
(1.97755 0.0960326 0)
(2.12128 -0.0126683 0)
(2.15046 -0.0237391 0)
(2.16892 -0.0310652 0)
(2.17797 -0.0186424 0)
(2.18966 -0.0141916 0)
(1.77067 -0.0899459 0)
(1.22079 -0.100737 0)
(1.2484 -0.056987 0)
(1.44276 -0.0279128 0)
(1.6066 -0.0171397 0)
(1.73132 0.000851002 0)
(1.83235 0.00685587 0)
(1.92481 0.00972896 0)
(2.00893 0.0100485 0)
(2.08656 0.0110681 0)
(2.15932 0.0126552 0)
(2.21902 0.0149316 0)
(2.31696 0.0169035 0)
(1.82139 0.592022 0)
(2.19522 -0.0815286 0)
(2.24658 -0.0870899 0)
(2.25641 -0.0645238 0)
(2.27336 -0.0471399 0)
(2.27137 -0.00472703 0)
(2.25964 -0.0351984 0)
(1.96683 -0.317041 0)
(1.45601 -0.090187 0)
(1.37423 -0.0319154 0)
(1.51503 -0.0200702 0)
(1.65023 -0.00323476 0)
(1.75974 0.00515159 0)
(1.85889 0.0164673 0)
(1.9481 0.0200298 0)
(2.02952 0.0188137 0)
(2.10597 0.0198349 0)
(2.17869 0.0227563 0)
(2.23858 0.0267519 0)
(2.33652 0.029618 0)
(1.85138 0.636787 0)
(2.20751 0.317994 0)
(2.40398 0.0215937 0)
(2.4324 -0.0338101 0)
(2.44075 -0.0424246 0)
(2.43028 -0.0258431 0)
(2.41206 -0.0895343 0)
(2.09935 -0.55086 0)
(1.78442 -0.265554 0)
(1.58429 -0.0457256 0)
(1.64776 -0.0542098 0)
(1.7421 -0.0244845 0)
(1.83184 0.0107276 0)
(1.91853 0.0262429 0)
(1.99907 0.0334016 0)
(2.07281 0.0385228 0)
(2.14211 0.0457849 0)
(2.20894 0.0511686 0)
(2.26493 0.0550257 0)
(2.35837 0.0587688 0)
(1.80493 0.7212 0)
(2.22829 0.356016 0)
(2.50826 -0.00446858 0)
(2.54173 -0.101213 0)
(2.55081 -0.082804 0)
(2.54746 -0.0491539 0)
(2.50537 -0.176682 0)
(2.10006 -0.699028 0)
(2.00761 -0.515207 0)
(1.75639 -0.125064 0)
(1.749 0.00525293 0)
(1.8316 0.00595007 0)
(1.90995 0.0284245 0)
(1.98595 0.0505573 0)
(2.05783 0.0589677 0)
(2.12462 0.0605905 0)
(2.18814 0.063963 0)
(2.24984 0.0667933 0)
(2.30132 0.0700682 0)
(2.38788 0.0756712 0)
(1.77866 0.725107 0)
(2.18568 0.469279 0)
(2.44962 0.191657 0)
(2.55577 -0.014931 0)
(2.60517 -0.058575 0)
(2.59949 -0.0669402 0)
(2.41709 -0.322562 0)
(2.08089 -0.694977 0)
(2.08164 -0.668459 0)
(1.93877 -0.290459 0)
(1.83422 -0.0388255 0)
(1.89659 0.0434782 0)
(1.97112 0.04913 0)
(2.04155 0.0605314 0)
(2.108 0.0721379 0)
(2.17081 0.0774594 0)
(2.23129 0.0838191 0)
(2.28897 0.0892907 0)
(2.3358 0.0963217 0)
(2.41464 0.105985 0)
(1.7407 0.741134 0)
(2.10666 0.572806 0)
(2.3914 0.249188 0)
(2.5457 0.0224479 0)
(2.6238 -0.0737465 0)
(2.60548 -0.123167 0)
(2.23446 -0.504193 0)
(2.06848 -0.692594 0)
(2.08992 -0.688012 0)
(2.09303 -0.483128 0)
(1.94121 -0.11082 0)
(1.95901 0.033379 0)
(2.01379 0.0737297 0)
(2.07715 0.0865078 0)
(2.14397 0.100558 0)
(2.20671 0.105916 0)
(2.26509 0.111818 0)
(2.3192 0.117421 0)
(2.36406 0.124307 0)
(2.44146 0.131152 0)
(1.72083 0.750479 0)
(2.03076 0.634006 0)
(2.31875 0.315396 0)
(2.48339 0.16306 0)
(2.59867 0.00148081 0)
(2.56302 -0.169322 0)
(2.12943 -0.633473 0)
(2.06904 -0.683924 0)
(2.10903 -0.66909 0)
(2.17672 -0.581236 0)
(2.12297 -0.279545 0)
(2.0212 0.000259446 0)
(2.06014 0.103995 0)
(2.1205 0.114997 0)
(2.18463 0.120455 0)
(2.24136 0.128403 0)
(2.29267 0.141494 0)
(2.34343 0.14778 0)
(2.38885 0.152391 0)
(2.46505 0.159717 0)
(1.70251 0.776708 0)
(1.97418 0.666303 0)
(2.24318 0.377892 0)
(2.41421 0.285184 0)
(2.56806 0.00889715 0)
(2.42912 -0.303577 0)
(2.0799 -0.697167 0)
(2.07238 -0.697352 0)
(2.13306 -0.666341 0)
(2.22178 -0.619429 0)
(2.23913 -0.439196 0)
(2.15767 -0.0968789 0)
(2.12674 0.0964717 0)
(2.16267 0.142731 0)
(2.21237 0.155513 0)
(2.26453 0.160235 0)
(2.31691 0.169515 0)
(2.36862 0.174172 0)
(2.41263 0.181619 0)
(2.48391 0.19171 0)
(1.70552 0.801585 0)
(1.93143 0.689497 0)
(2.18555 0.431972 0)
(2.36323 0.383987 0)
(2.44713 0.0666382 0)
(2.21999 -0.431431 0)
(2.06014 -0.703836 0)
(2.09341 -0.693125 0)
(2.16887 -0.649066 0)
(2.24186 -0.61969 0)
(2.32128 -0.534619 0)
(2.3005 -0.28195 0)
(2.22617 0.0239521 0)
(2.21433 0.153658 0)
(2.24702 0.179685 0)
(2.29445 0.18464 0)
(2.34029 0.198448 0)
(2.38729 0.206201 0)
(2.43149 0.21351 0)
(2.5038 0.220773 0)
(1.71498 0.838236 0)
(1.91306 0.696636 0)
(2.14769 0.495143 0)
(2.32354 0.469867 0)
(2.26179 0.0285403 0)
(2.08939 -0.465813 0)
(2.05461 -0.67217 0)
(2.11722 -0.669363 0)
(2.20383 -0.634318 0)
(2.28972 -0.599209 0)
(2.37281 -0.564522 0)
(2.38506 -0.419631 0)
(2.33629 -0.105742 0)
(2.28148 0.124584 0)
(2.28359 0.199559 0)
(2.32375 0.215989 0)
(2.36757 0.227698 0)
(2.41209 0.233726 0)
(2.45152 0.245603 0)
(2.51562 0.256186 0)
(1.72355 0.871188 0)
(1.90852 0.710491 0)
(2.12732 0.580782 0)
(2.28004 0.47376 0)
(2.14501 -0.0482299 0)
(1.993 -0.50362 0)
(2.03879 -0.59999 0)
(2.14191 -0.617274 0)
(2.24173 -0.608382 0)
(2.32844 -0.578185 0)
(2.39139 -0.548754 0)
(2.44086 -0.482339 0)
(2.43266 -0.301575 0)
(2.36339 0.0371294 0)
(2.31937 0.22059 0)
(2.34034 0.251288 0)
(2.3843 0.266017 0)
(2.43149 0.268153 0)
(2.47168 0.280154 0)
(2.53413 0.288482 0)
(1.72674 0.892143 0)
(1.92254 0.718384 0)
(2.10512 0.675874 0)
(2.20962 0.44757 0)
(2.03336 -0.138683 0)
(1.96147 -0.48801 0)
(2.04622 -0.538247 0)
(2.16389 -0.565545 0)
(2.2682 -0.570669 0)
(2.34354 -0.540274 0)
(2.40916 -0.506479 0)
(2.45298 -0.482154 0)
(2.49552 -0.386321 0)
(2.46411 -0.151415 0)
(2.40716 0.133003 0)
(2.37184 0.273853 0)
(2.39282 0.302816 0)
(2.43484 0.306002 0)
(2.47442 0.320447 0)
(2.54003 0.327213 0)
(1.75347 0.896681 0)
(1.9166 0.76747 0)
(2.10169 0.760195 0)
(2.07663 0.346044 0)
(1.9234 -0.222068 0)
(1.94416 -0.438437 0)
(2.05071 -0.473845 0)
(2.16509 -0.488565 0)
(2.26419 -0.497406 0)
(2.34639 -0.493131 0)
(2.41957 -0.467811 0)
(2.47747 -0.443217 0)
(2.53459 -0.410798 0)
(2.53494 -0.275235 0)
(2.48793 0.0163705 0)
(2.43916 0.227964 0)
(2.43504 0.318221 0)
(2.45733 0.337496 0)
(2.48827 0.352568 0)
(2.54798 0.358269 0)
(1.82386 0.856904 0)
(1.91286 0.813158 0)
(2.09742 0.755416 0)
(1.95882 0.21154 0)
(1.8252 -0.235295 0)
(1.91677 -0.360183 0)
(2.04812 -0.407057 0)
(2.17061 -0.42954 0)
(2.27518 -0.44456 0)
(2.36155 -0.449264 0)
(2.43253 -0.425104 0)
(2.49992 -0.403242 0)
(2.54397 -0.387033 0)
(2.59591 -0.32106 0)
(2.58713 -0.165152 0)
(2.52003 0.153491 0)
(2.47001 0.33971 0)
(2.47834 0.374733 0)
(2.50889 0.39294 0)
(2.56157 0.389343 0)
(1.90445 0.779501 0)
(1.9088 0.85039 0)
(2.06647 0.778102 0)
(1.76777 0.0631818 0)
(1.75681 -0.242165 0)
(1.88997 -0.295649 0)
(2.04293 -0.341718 0)
(2.17071 -0.363306 0)
(2.27288 -0.369507 0)
(2.35912 -0.372547 0)
(2.43887 -0.364938 0)
(2.5101 -0.349942 0)
(2.57544 -0.335158 0)
(2.61951 -0.317886 0)
(2.66635 -0.223289 0)
(2.64159 -0.0329933 0)
(2.56662 0.251946 0)
(2.51296 0.399876 0)
(2.51893 0.434007 0)
(2.56681 0.430516 0)
(2.07583 0.665455 0)
(1.91151 0.940982 0)
(1.94166 0.620665 0)
(1.62217 0.0127371 0)
(1.71896 -0.196107 0)
(1.87228 -0.23355 0)
(2.03481 -0.267344 0)
(2.17534 -0.293499 0)
(2.29051 -0.310299 0)
(2.38642 -0.31921 0)
(2.47191 -0.314822 0)
(2.54516 -0.303764 0)
(2.61533 -0.288517 0)
(2.66607 -0.272224 0)
(2.71893 -0.243155 0)
(2.72135 -0.120901 0)
(2.6788 0.116258 0)
(2.62138 0.334231 0)
(2.5625 0.449608 0)
(2.57702 0.465079 0)
(2.36369 0.595791 0)
(2.01843 0.994955 0)
(1.61913 0.34045 0)
(1.50773 -0.0447963 0)
(1.71404 -0.171268 0)
(1.90054 -0.19823 0)
(2.07079 -0.220741 0)
(2.21436 -0.243092 0)
(2.32979 -0.254495 0)
(2.42313 -0.254001 0)
(2.50555 -0.247548 0)
(2.58208 -0.245535 0)
(2.65114 -0.233243 0)
(2.71343 -0.218692 0)
(2.74276 -0.216721 0)
(2.80049 -0.149872 0)
(2.78498 -0.0383625 0)
(2.71552 0.252291 0)
(2.62502 0.455818 0)
(2.62484 0.479983 0)
(2.94955 0.324656 0)
(2.15781 0.997961 0)
(1.39573 0.19614 0)
(1.52518 -0.029977 0)
(1.76033 -0.12598 0)
(1.9644 -0.150328 0)
(2.1308 -0.160385 0)
(2.26435 -0.172887 0)
(2.3721 -0.182396 0)
(2.46136 -0.18314 0)
(2.53814 -0.175944 0)
(2.6097 -0.171147 0)
(2.67854 -0.162517 0)
(2.73852 -0.152584 0)
(2.78716 -0.141877 0)
(2.82352 -0.147803 0)
(2.85497 -0.0798523 0)
(2.82026 0.0771769 0)
(2.73957 0.360427 0)
(2.67014 0.487038 0)
(3.0805 0.0649151 0)
(2.48077 0.74022 0)
(1.40226 0.0183061 0)
(1.61872 -0.100409 0)
(1.85807 -0.116547 0)
(2.05597 -0.109193 0)
(2.20424 -0.105069 0)
(2.32314 -0.111181 0)
(2.42308 -0.117265 0)
(2.50936 -0.117814 0)
(2.58719 -0.113125 0)
(2.6588 -0.113001 0)
(2.71802 -0.107875 0)
(2.76973 -0.0988043 0)
(2.82039 -0.0908178 0)
(2.8535 -0.0959626 0)
(2.87513 -0.066006 0)
(2.87157 0.0261898 0)
(2.84117 0.215273 0)
(2.76194 0.389606 0)
(3.00916 0.00525993 0)
(2.98263 0.66086 0)
(1.53971 0.12356 0)
(1.71318 -0.0104513 0)
(1.9352 -0.0408695 0)
(2.11597 -0.0420912 0)
(2.24863 -0.0381699 0)
(2.35649 -0.0373236 0)
(2.45038 -0.0380251 0)
(2.53403 -0.0381453 0)
(2.60396 -0.0358083 0)
(2.6625 -0.0334439 0)
(2.71148 -0.041914 0)
(2.75217 -0.0471988 0)
(2.79384 -0.0461623 0)
(2.83219 -0.0448369 0)
(2.85097 -0.0636692 0)
(2.89815 -0.0168304 0)
(2.87961 0.038727 0)
(2.75273 0.157687 0)
)
;

boundaryField
{
    inlet
    {
        type            fixedValue;
        value           uniform (3 0 0);
    }
    outlet
    {
        type            inletOutlet;
        inletValue      uniform (3 0 0);
        value           nonuniform List<vector> 
20
(
(2.31696 0.0169035 0)
(2.33652 0.029618 0)
(2.35837 0.0587688 0)
(2.38788 0.0756712 0)
(2.41464 0.105985 0)
(2.44146 0.131152 0)
(2.46505 0.159717 0)
(2.48391 0.19171 0)
(2.5038 0.220773 0)
(2.51562 0.256186 0)
(2.53413 0.288482 0)
(2.54003 0.327213 0)
(2.54798 0.358269 0)
(2.56157 0.389343 0)
(2.56681 0.430516 0)
(2.57702 0.465079 0)
(2.62484 0.479983 0)
(2.67014 0.487038 0)
(2.76194 0.389606 0)
(2.75273 0.157687 0)
)
;
    }
    bottom
    {
        type            symmetryPlane;
    }
    top
    {
        type            symmetryPlane;
    }
    obstacle
    {
        type            slip;
    }
    defaultFaces
    {
        type            empty;
    }
}


// ************************************************************************* //
