/*--------------------------------*- C++ -*----------------------------------*\
  =========                 |
  \\      /  F ield         | OpenFOAM: The Open Source CFD Toolbox
   \\    /   O peration     | Website:  https://openfoam.org
    \\  /    A nd           | Version:  6.0
     \\/     M anipulation  |
\*---------------------------------------------------------------------------*/
FoamFile
{
    version     2.0;
    format      ascii;
    class       volScalarField;
    location    "1.5";
    object      p;
}
// * * * * * * * * * * * * * * * * * * * * * * * * * * * * * * * * * * * * * //

dimensions      [1 -1 -2 0 0 0 0];

internalField   nonuniform List<scalar> 
1200
(
1
1
1
1
1
1
1
1
1
1
2.20213
9.08258
10.8593
11.0034
11.2475
11.4556
11.65
11.8215
11.9403
12.0356
1
1
1
1
1
1
1
1
1
1
2.19196
9.05775
10.852
10.999
11.2423
11.4502
11.6433
11.8132
11.9303
12.027
1
1
1
1
1
1
1
1
1
1
2.1619
9.01507
10.8401
10.9893
11.2311
11.4391
11.6315
11.7998
11.9144
12.0133
1
1
1
1
1
1
1
1
1
1
2.1235
8.96042
10.8285
10.9774
11.2157
11.4219
11.613
11.7806
11.8924
11.9932
1
1
1
1
1
1
1
1
1
1
2.07476
8.87388
10.8088
10.9587
11.1948
11.3996
11.5891
11.7558
11.8648
11.969
1
1
1
1
1
1
1
1
1
1
2.01771
8.76137
10.7861
10.937
11.1709
11.3731
11.5604
11.7277
11.8338
11.9373
1
1
1
1
1
1
1
1
1
1
1.94705
8.62102
10.7597
10.9122
11.1427
11.3422
11.5284
11.6952
11.7964
11.8984
1
1
1
1
1
1
1
1
1
1
1.85592
8.45354
10.7402
10.8841
11.1132
11.3094
11.4925
11.6566
11.7536
11.8508
1
1
1
1
1
1
1
1
1
1
1.74127
8.25681
10.7233
10.8542
11.0778
11.2689
11.449
11.6095
11.7019
11.7941
1
1
1
1
1
1
1
1
1
1
1.59528
8.04044
10.7041
10.8174
11.0361
11.2228
11.4001
11.5543
11.6406
11.7228
1
1
1
1
1
1
1
1
1
1
1.44251
7.803
10.69
10.7756
10.9874
11.1698
11.3423
11.4868
11.5664
11.6426
1
1
1
1
1
1
1
1
1
1
1.30001
7.54154
10.6659
10.7276
10.9318
11.1071
11.2734
11.4069
11.4782
11.541
1
1
1
1
1
1
1
1
1
1
1.17053
7.27306
10.5989
10.6619
10.8692
11.0397
11.1949
11.3106
11.369
11.4254
1
1
1
1
1
1
1
1
1
1
1.06455
6.9757
10.5277
10.6017
10.7984
10.9586
11.1024
11.2001
11.2437
11.2806
1
1
1
1
1
1
1
1
1
1
1.00929
6.62224
10.4326
10.5354
10.7234
10.8741
11.0024
11.0718
11.0864
11.1113
1
1
1
1
1
1
1
1
1
1
1.00063
6.21082
10.3174
10.4665
10.6438
10.7812
10.8891
10.9275
10.9087
10.8909
1
1
1
1
1
1
1
1
1
1
1.00001
5.77259
10.1884
10.4006
10.5664
10.6894
10.7711
10.7658
10.6806
10.6151
1
1
1
1
1
1
1
1
1
1
1
5.31142
10.0398
10.3361
10.4872
10.5966
10.6426
10.5857
10.4287
10.2441
1
1
1
1
1
1
1
1
1
1
1
4.83113
9.88065
10.2832
10.4065
10.5017
10.5105
10.3983
10.1154
9.70337
1
1
1
1
1
1
1
1
1
1
1
4.33828
9.67257
10.2186
10.3294
10.4035
10.3601
10.1848
9.83771
9.25252
1
1
1
1
1
1
1
1
1
1
1
2.97253
9.02927
10.0993
10.169
10.1853
10.055
9.73598
9.14211
7.17351
1
1
1
1
1
1
1
1
1
1
1
1.22909
7.21078
9.94157
9.91541
9.78838
9.53852
9.03711
8.28334
6.53874
1
1
1
1
1
1
1
1
1
1
1
1.0034
4.48632
9.25039
9.47479
9.30317
8.98229
8.49552
7.63626
6.24428
1
1
1
1
1
1
1
1
1
1
1
0.999983
1.66493
7.6245
9.20753
8.9132
8.60307
8.07904
7.24752
6.17624
1
1
1
1
1
1
1
1
1
1
1
0.999997
1.0229
4.4719
8.49626
8.53379
8.19725
7.71063
7.01376
6.18205
1
1
1
1
1
1
1
1
1
1
1
1
1.00003
1.4993
6.50999
8.38991
7.96718
7.50671
6.90209
6.19408
1
1
1
1
1
1
1
1
1
1
1
1
1
1.01278
2.80583
7.34446
7.79876
7.32133
6.79822
6.19831
1
1
1
1
1
1
1
1
1
1
1
1
1
1.00004
1.14826
4.35667
7.47334
7.26661
6.78832
6.26922
1
1
1
1
1
1
1
1
1
1
1
1
1
1
1.00152
1.52913
5.14859
7.15403
6.81398
6.33839
1
1
1
1
1
1
1
1
1
1
1
1
1
1
1
1.01495
1.93686
5.47273
6.74102
6.44351
1
1
1
1
1
1
1
1
1
1
1
1
1
1
1
1.00007
1.04423
2.27588
5.45394
6.38175
1
1
1
1
1
1
1
1
1
1
1
1
1
1
1
1
1.00033
1.08214
2.43485
5.3763
1
1
1
1
1
1
1
1
1
1
1
1
1
1
1
1
1
1.00092
1.10521
2.7873
1
1
1
1
1
1
1
1
1
1
1
1
1
1
1
1
1
1
1.00117
1.1799
1
1
1
1
1
1
1
1
1
1
1
1
1
1
1
1
1
1
1
1.00226
1
1
1
1
1
1
1
1
1
1
1
1
1
1
1
1
1
1
1
1
1
1
1
1
1
1
1
1
1
1
1
1
1
1
1
1
1
1
1
1
1
1
1
1
1
1
1
1
1
1
1
1
1
1
1
1
1
1
1
1
1
1
1
1
1
1
1
1
1
1
1
1
1
1
1
1
1
1
1
1
1
1
1
1
1
1
1
1
1
1
1
1
1
1
1
1
1
1
1
1
1.11432
0.967089
1.09653
1.17538
1.2039
1.23664
1.25469
1.23784
1.19316
1.13754
1.20345
1.84428
3.21268
4.02615
4.0424
3.6812
3.28764
2.97983
2.71657
2.37435
2.66836
1.3276
1.11751
1.12142
1.14858
1.20122
1.23161
1.21673
1.16692
1.15273
1.4241
2.03002
2.60066
3.17298
3.46465
3.46305
3.23741
2.96807
2.71044
2.39358
3.37369
1.60909
1.13596
1.10707
1.14887
1.21488
1.22717
1.20046
1.16082
1.24953
1.80265
2.20169
2.21281
2.46066
2.85546
3.11348
3.18308
3.02024
2.76854
2.43809
3.90386
2.05265
1.37452
1.12191
1.11371
1.16854
1.19072
1.16968
1.17847
1.49551
2.17598
2.33342
2.17822
2.01787
2.11095
2.47514
2.78722
2.77074
2.72643
2.51374
4.34221
2.42632
1.63593
1.17652
1.13576
1.15239
1.15947
1.14919
1.24815
1.92655
2.40521
2.3768
2.2064
1.96273
1.76873
1.79598
2.08505
2.40026
2.51695
2.39761
4.61254
2.80505
1.91939
1.35905
1.20922
1.1587
1.12842
1.15946
1.52402
2.36736
2.52312
2.4012
2.19214
1.95692
1.70188
1.54006
1.53442
1.7567
2.12686
2.16864
4.79225
3.15682
2.19655
1.55903
1.30904
1.13772
1.11247
1.21732
1.98765
2.63249
2.58257
2.40301
2.13756
1.86464
1.65535
1.49534
1.39304
1.34482
1.48966
1.8106
4.94945
3.47166
2.43025
1.81618
1.45181
1.14472
1.13647
1.46074
2.43645
2.67373
2.54525
2.30024
2.04136
1.79438
1.61861
1.47158
1.3528
1.26686
1.21136
1.3251
5.06738
3.75087
2.63664
2.0768
1.57129
1.22376
1.22441
1.94112
2.69458
2.64243
2.46719
2.19267
1.94362
1.73729
1.58845
1.46132
1.33266
1.23226
1.16099
1.068
5.20786
3.99189
2.86823
2.29466
1.66224
1.34487
1.56213
2.49503
2.73198
2.58742
2.34172
2.08912
1.85628
1.70015
1.57115
1.44591
1.30836
1.21653
1.12333
1.00708
5.41039
4.19742
3.11643
2.46681
1.77489
1.50375
2.20231
2.97252
2.80917
2.50149
2.22531
1.99864
1.78773
1.65435
1.55543
1.42596
1.28458
1.1976
1.1017
0.971631
5.5708
4.4194
3.39125
2.56254
1.92986
1.935
3.05538
3.18826
2.85801
2.44973
2.15269
1.92676
1.72473
1.6071
1.48784
1.34769
1.24952
1.17048
1.07985
0.945355
5.37386
4.6882
3.63741
2.58544
2.14996
2.85956
3.76293
3.43362
2.90015
2.45106
2.12669
1.87754
1.69274
1.5643
1.4165
1.27712
1.18805
1.10786
1.02037
0.904354
4.78669
4.59599
3.81562
2.72999
2.6697
4.10923
4.15032
3.62136
2.98482
2.51046
2.14373
1.85448
1.65648
1.49955
1.34222
1.21281
1.13343
1.05122
0.96796
0.860223
3.51273
4.41171
3.85174
3.02646
3.88939
5.09423
4.49296
3.70263
3.02837
2.54464
2.16261
1.86066
1.65009
1.46617
1.29675
1.17187
1.08911
0.995877
0.910074
0.816404
2.73885
4.3644
3.92863
3.78204
5.65568
5.61252
4.75042
3.82753
3.13403
2.61898
2.20248
1.87838
1.63797
1.44194
1.2918
1.16046
1.05484
0.949977
0.866688
0.785226
1.76299
3.94282
3.98976
5.34915
6.89364
5.90524
4.81865
3.88562
3.19028
2.66887
2.24682
1.9127
1.64648
1.42916
1.2561
1.11613
1.0118
0.911363
0.831046
0.757656
1.1877
3.15454
4.26566
7.64013
7.65502
6.28485
4.96294
3.9768
3.24317
2.69316
2.25704
1.92106
1.65468
1.43384
1.25165
1.11078
1.00198
0.899654
0.817325
0.731922
1.00688
2.32652
5.35916
9.16918
7.96602
6.37699
5.02163
4.03533
3.40623
2.85036
2.39102
2.03614
1.74876
1.51325
1.31828
1.16386
1.03063
0.916982
0.829617
0.723201
0.999876
2.24235
6.88625
10.7932
8.53398
6.42051
4.99142
4.05692
3.3185
2.75228
2.29963
1.95516
1.66953
1.44476
1.2566
1.11388
0.979337
0.872777
0.786424
0.690496
)
;

boundaryField
{
    inlet
    {
        type            fixedValue;
        value           uniform 1;
    }
    outlet
    {
        type            zeroGradient;
    }
    bottom
    {
        type            symmetryPlane;
    }
    top
    {
        type            symmetryPlane;
    }
    obstacle
    {
        type            zeroGradient;
    }
    defaultFaces
    {
        type            empty;
    }
}


// ************************************************************************* //
