/*--------------------------------*- C++ -*----------------------------------*\
  =========                 |
  \\      /  F ield         | OpenFOAM: The Open Source CFD Toolbox
   \\    /   O peration     | Website:  https://openfoam.org
    \\  /    A nd           | Version:  6.0
     \\/     M anipulation  |
\*---------------------------------------------------------------------------*/
FoamFile
{
    version     2.0;
    format      ascii;
    class       volScalarField;
    location    "1.5";
    object      rho;
}
// * * * * * * * * * * * * * * * * * * * * * * * * * * * * * * * * * * * * * //

dimensions      [1 -3 0 0 0 0 0];

internalField   nonuniform List<scalar> 
1200
(
1.39997
1.39997
1.39997
1.39997
1.39997
1.39997
1.39997
1.39997
1.39997
1.39997
2.03206
4.86948
5.48761
5.56939
5.68288
5.77336
5.82626
5.82892
5.80513
5.80589
1.39997
1.39997
1.39997
1.39997
1.39997
1.39997
1.39997
1.39997
1.39997
1.39997
2.02522
4.85845
5.48383
5.56695
5.68041
5.77109
5.82359
5.82574
5.8015
5.80283
1.39997
1.39997
1.39997
1.39997
1.39997
1.39997
1.39997
1.39997
1.39997
1.39997
2.01069
4.84116
5.47617
5.56073
5.67433
5.76599
5.81872
5.82049
5.7956
5.79783
1.39997
1.39997
1.39997
1.39997
1.39997
1.39997
1.39997
1.39997
1.39997
1.39997
1.99343
4.81918
5.46665
5.55204
5.66552
5.75807
5.81142
5.81321
5.78748
5.79048
1.39997
1.39997
1.39997
1.39997
1.39997
1.39997
1.39997
1.39997
1.39997
1.39997
1.96719
4.78155
5.45338
5.54077
5.65446
5.7481
5.80244
5.80437
5.77751
5.78162
1.39997
1.39997
1.39997
1.39997
1.39997
1.39997
1.39997
1.39997
1.39997
1.39997
1.93533
4.73174
5.43994
5.52925
5.64285
5.73706
5.79224
5.79464
5.7664
5.77016
1.39997
1.39997
1.39997
1.39997
1.39997
1.39997
1.39997
1.39997
1.39997
1.39997
1.89652
4.67402
5.42904
5.51928
5.63199
5.72602
5.78144
5.78342
5.753
5.75617
1.39997
1.39997
1.39997
1.39997
1.39997
1.39997
1.39997
1.39997
1.39997
1.39997
1.84931
4.61604
5.42722
5.51395
5.62524
5.71664
5.76972
5.7699
5.73753
5.73909
1.39997
1.39997
1.39997
1.39997
1.39997
1.39997
1.39997
1.39997
1.39997
1.39997
1.79464
4.56361
5.43572
5.51521
5.62155
5.70683
5.75552
5.75313
5.71871
5.71875
1.39997
1.39997
1.39997
1.39997
1.39997
1.39997
1.39997
1.39997
1.39997
1.39997
1.72614
4.52091
5.45426
5.52006
5.61941
5.69639
5.73915
5.73326
5.69647
5.69321
1.39997
1.39997
1.39997
1.39997
1.39997
1.39997
1.39997
1.39997
1.39997
1.39997
1.65808
4.47847
5.47947
5.52472
5.61488
5.6828
5.71895
5.70892
5.66989
5.66467
1.39997
1.39997
1.39997
1.39997
1.39997
1.39997
1.39997
1.39997
1.39997
1.39997
1.58665
4.41215
5.4954
5.52252
5.60331
5.66317
5.69401
5.68033
5.6387
5.62884
1.39997
1.39997
1.39997
1.39997
1.39997
1.39997
1.39997
1.39997
1.39997
1.39997
1.50867
4.31549
5.47861
5.50413
5.58315
5.63882
5.66496
5.64625
5.60062
5.5884
1.39997
1.39997
1.39997
1.39997
1.39997
1.39997
1.39997
1.39997
1.39997
1.39997
1.44412
4.19047
5.443
5.47706
5.55496
5.60742
5.6306
5.6077
5.5573
5.53785
1.39997
1.39997
1.39997
1.39997
1.39997
1.39997
1.39997
1.39997
1.39997
1.39997
1.40819
4.03149
5.39033
5.44266
5.52198
5.57345
5.59363
5.56347
5.50317
5.47869
1.39997
1.39997
1.39997
1.39997
1.39997
1.39997
1.39997
1.39997
1.39997
1.39997
1.40061
3.84604
5.32709
5.4061
5.48562
5.53567
5.5519
5.51416
5.44202
5.40116
1.39997
1.39997
1.39997
1.39997
1.39997
1.39997
1.39997
1.39997
1.39997
1.39997
1.39998
3.65542
5.26144
5.37197
5.4499
5.49785
5.50812
5.45886
5.36349
5.30444
1.39997
1.39997
1.39997
1.39997
1.39997
1.39997
1.39997
1.39997
1.39997
1.39997
1.39997
3.46061
5.19487
5.33955
5.41341
5.45928
5.4597
5.39647
5.27764
5.17866
1.39997
1.39997
1.39997
1.39997
1.39997
1.39997
1.39997
1.39997
1.39997
1.39997
1.39997
3.25799
5.13327
5.31076
5.37586
5.41904
5.40951
5.33165
5.16943
4.98895
1.39997
1.39997
1.39997
1.39997
1.39997
1.39997
1.39997
1.39997
1.39997
1.39997
1.39997
3.04821
5.06489
5.27929
5.34004
5.37667
5.35268
5.25728
5.06532
4.77798
1.39997
1.39997
1.39997
1.39997
1.39997
1.39997
1.39997
1.39997
1.39997
1.39997
1.39997
2.45616
4.92467
5.26197
5.28786
5.29587
5.24346
5.10417
4.81433
3.83216
1.39997
1.39997
1.39997
1.39997
1.39997
1.39997
1.39997
1.39997
1.39997
1.39997
1.39997
1.56865
4.38065
5.29273
5.23258
5.16882
5.06336
4.85817
4.52349
3.71311
1.39997
1.39997
1.39997
1.39997
1.39997
1.39997
1.39997
1.39997
1.39997
1.39997
1.39997
1.4027
3.21542
5.13266
5.1073
5.02492
4.88443
4.67913
4.31285
3.69608
1.39997
1.39997
1.39997
1.39997
1.39997
1.39997
1.39997
1.39997
1.39997
1.39997
1.39997
1.39995
1.83119
4.63354
5.0832
4.94119
4.79058
4.55663
4.19624
3.72234
1.39997
1.39997
1.39997
1.39997
1.39997
1.39997
1.39997
1.39997
1.39997
1.39997
1.39997
1.39997
1.41809
3.24776
4.89444
4.84254
4.68146
4.45604
4.14177
3.76471
1.39997
1.39997
1.39997
1.39997
1.39997
1.39997
1.39997
1.39997
1.39997
1.39997
1.39997
1.39997
1.39999
1.74111
4.19642
4.85448
4.65628
4.43326
4.14821
3.81401
1.39997
1.39997
1.39997
1.39997
1.39997
1.39997
1.39997
1.39997
1.39997
1.39997
1.39997
1.39997
1.39997
1.41037
2.49046
4.59668
4.63578
4.41431
4.1611
3.86672
1.39997
1.39997
1.39997
1.39997
1.39997
1.39997
1.39997
1.39997
1.39997
1.39997
1.39997
1.39997
1.39997
1.4
1.51428
3.29067
4.58005
4.4652
4.22212
3.95602
1.39997
1.39997
1.39997
1.39997
1.39997
1.39997
1.39997
1.39997
1.39997
1.39997
1.39997
1.39997
1.39997
1.39997
1.4013
1.77283
3.6722
4.48173
4.30696
4.05787
1.39997
1.39997
1.39997
1.39997
1.39997
1.39997
1.39997
1.39997
1.39997
1.39997
1.39997
1.39997
1.39997
1.39997
1.39997
1.41256
2.03183
3.86337
4.34019
4.18126
1.39997
1.39997
1.39997
1.39997
1.39997
1.39997
1.39997
1.39997
1.39997
1.39997
1.39997
1.39997
1.39997
1.39997
1.39997
1.40004
1.43675
2.24304
3.88789
4.2172
1.39997
1.39997
1.39997
1.39997
1.39997
1.39997
1.39997
1.39997
1.39997
1.39997
1.39997
1.39997
1.39997
1.39997
1.39997
1.39997
1.40028
1.46722
2.35501
3.85743
1.39997
1.39997
1.39997
1.39997
1.39997
1.39997
1.39997
1.39997
1.39997
1.39997
1.39997
1.39997
1.39997
1.39997
1.39997
1.39997
1.39997
1.40083
1.48592
2.52464
1.39997
1.39997
1.39997
1.39997
1.39997
1.39997
1.39997
1.39997
1.39997
1.39997
1.39997
1.39997
1.39997
1.39997
1.39997
1.39997
1.39997
1.39997
1.40105
1.53955
1.39997
1.39997
1.39997
1.39997
1.39997
1.39997
1.39997
1.39997
1.39997
1.39997
1.39997
1.39997
1.39997
1.39997
1.39997
1.39997
1.39997
1.39997
1.39997
1.40194
1.39997
1.39997
1.39997
1.39997
1.39997
1.39997
1.39997
1.39997
1.39997
1.39997
1.39997
1.39997
1.39997
1.39997
1.39997
1.39997
1.39997
1.39997
1.39997
1.39997
1.39997
1.39997
1.39997
1.39997
1.39997
1.39997
1.39997
1.39997
1.39997
1.39997
1.39997
1.39997
1.39997
1.39997
1.39997
1.39997
1.39997
1.39997
1.39997
1.39997
1.39997
1.39997
1.39997
1.39997
1.39997
1.39997
1.39997
1.39997
1.39997
1.39997
1.39997
1.39997
1.39997
1.39997
1.39997
1.39997
1.39997
1.39997
1.39997
1.39997
1.39997
1.39997
1.39997
1.39997
1.39997
1.39997
1.39997
1.39997
1.39997
1.39997
1.39997
1.39997
1.39997
1.39997
1.39997
1.39997
1.39997
1.39997
1.39997
1.39997
1.39997
1.39997
1.39997
1.39997
1.39997
1.39997
1.39997
1.39997
1.39997
1.39997
1.39997
1.39997
1.39997
1.39997
1.39997
1.39997
1.39997
1.39997
1.39997
1.39997
0.88811
0.744326
0.80636
0.873781
0.916209
0.945542
0.949037
0.933033
0.903686
0.874019
0.914344
1.25054
1.87684
2.2352
2.26043
2.11848
1.96209
1.83365
1.71332
1.53119
1.77772
0.996478
0.854582
0.872538
0.906118
0.947978
0.95756
0.939314
0.903893
0.898025
1.04954
1.38946
1.70497
1.98466
2.11454
2.10164
2.00415
1.88331
1.75525
1.57667
2.27788
1.25048
0.92363
0.922637
0.958657
1.01058
1.00716
0.976203
0.941801
0.992292
1.30277
1.5811
1.62981
1.77861
1.98551
2.0986
2.11492
2.02588
1.8877
1.69291
2.6277
1.58638
1.13838
0.983616
1.00036
1.04374
1.04619
1.01567
1.01102
1.1921
1.58733
1.73507
1.6832
1.61729
1.67912
1.8887
2.05186
2.02591
1.98922
1.85053
2.895
1.85859
1.36345
1.06046
1.06248
1.07746
1.07235
1.0508
1.10305
1.48529
1.79956
1.81016
1.7406
1.61762
1.51358
1.5429
1.72467
1.91069
1.97354
1.88919
3.05945
2.10791
1.58257
1.22247
1.14213
1.11085
1.07817
1.08862
1.30322
1.77654
1.90906
1.86017
1.76013
1.63756
1.49397
1.40166
1.41258
1.55933
1.79874
1.82202
3.18184
2.32722
1.77917
1.38845
1.232
1.11475
1.08287
1.14473
1.58325
1.96852
1.95815
1.88551
1.75443
1.60432
1.4847
1.39172
1.33547
1.31509
1.41736
1.63129
3.2965
2.52296
1.9404
1.57604
1.34302
1.12909
1.10952
1.30986
1.85293
2.02412
1.96999
1.85551
1.72166
1.58264
1.48187
1.39595
1.32652
1.27855
1.24954
1.33218
3.40172
2.70152
2.08222
1.75267
1.43138
1.18942
1.17871
1.5946
2.03649
2.02676
1.95832
1.82306
1.68807
1.57014
1.48471
1.41137
1.33378
1.27306
1.23114
1.17241
3.52935
2.86694
2.23859
1.89863
1.50094
1.27576
1.40608
1.92377
2.09415
2.03046
1.9161
1.7882
1.65966
1.57155
1.49838
1.42537
1.34003
1.28436
1.2245
1.14775
3.69394
3.0231
2.40903
2.02216
1.58913
1.38992
1.78205
2.23225
2.16246
2.01526
1.87885
1.76053
1.64274
1.56861
1.51569
1.43946
1.34898
1.29647
1.2336
1.14226
3.83683
3.20326
2.60578
2.10946
1.70798
1.68324
2.26591
2.39003
2.23049
2.01938
1.86558
1.74464
1.62932
1.56543
1.49842
1.41211
1.35192
1.30462
1.24428
1.14469
3.78373
3.40217
2.79487
2.15821
1.86328
2.22841
2.70894
2.55926
2.29159
2.05635
1.88326
1.74533
1.63982
1.56789
1.4787
1.38884
1.33229
1.28076
1.21923
1.13108
3.46952
3.36092
2.92456
2.27672
2.19943
2.90049
2.96535
2.70969
2.38049
2.13143
1.93268
1.76667
1.64971
1.55542
1.45442
1.36616
1.31275
1.25509
1.19309
1.1075
2.76913
3.25138
2.94889
2.47221
2.88451
3.4658
3.19237
2.80333
2.45568
2.20034
1.98916
1.81088
1.68145
1.56193
1.44423
1.35449
1.29543
1.22462
1.15623
1.0782
2.47922
3.25848
3.01127
2.90122
3.76661
3.79076
3.39546
2.93524
2.57806
2.30205
2.06277
1.8621
1.70453
1.56854
1.4597
1.36144
1.28101
1.19671
1.12709
1.05653
2.02581
3.1611
3.09877
3.67796
4.44283
4.02843
3.52172
3.04959
2.68223
2.38931
2.13384
1.91714
1.73415
1.57576
1.44419
1.33476
1.25222
1.16872
1.09918
1.03382
1.58535
2.80253
3.3432
4.8169
4.93789
4.35064
3.70403
3.1823
2.77232
2.44436
2.16719
1.94198
1.75427
1.5899
1.4483
1.33586
1.2472
1.16032
1.08779
1.00968
1.40695
2.31699
4.07096
5.82536
5.26902
4.50419
3.80735
3.26746
2.90157
2.56245
2.26825
2.03072
1.8289
1.65518
1.505
1.3827
1.27344
1.17668
1.09974
1.0011
1.39985
2.38331
5.0414
6.71598
5.63305
4.57258
3.8167
3.29789
2.85944
2.50646
2.21081
1.97593
1.77133
1.60283
1.45585
1.34143
1.22903
1.13695
1.05951
0.969076
)
;

boundaryField
{
    inlet
    {
        type            calculated;
        value           uniform 1.39997;
    }
    outlet
    {
        type            calculated;
        value           nonuniform List<scalar> 
20
(
1.5303
1.57599
1.69242
1.85048
1.8899
1.82323
1.63338
1.33416
1.17301
1.14792
1.14243
1.14501
1.13125
1.10777
1.07834
1.05658
1.03387
1.00978
1.00126
0.969227
)
;
    }
    bottom
    {
        type            symmetryPlane;
    }
    top
    {
        type            symmetryPlane;
    }
    obstacle
    {
        type            calculated;
        value           nonuniform List<scalar> 
40
(
5.80589
5.80283
5.79783
5.79048
5.78162
5.77016
5.75617
5.73909
5.71875
5.69321
5.66467
5.62884
5.5884
5.53785
5.47869
5.40116
5.30444
5.17866
4.98895
4.77798
0.88811
0.744326
0.80636
0.873781
0.916209
0.945542
0.949037
0.933033
0.903686
0.874019
0.914344
1.25054
1.87684
2.2352
2.26043
2.11848
1.96209
1.83365
1.71332
1.53119
)
;
    }
    defaultFaces
    {
        type            empty;
    }
}


// ************************************************************************* //
