/*--------------------------------*- C++ -*----------------------------------*\
  =========                 |
  \\      /  F ield         | OpenFOAM: The Open Source CFD Toolbox
   \\    /   O peration     | Website:  https://openfoam.org
    \\  /    A nd           | Version:  6.0
     \\/     M anipulation  |
\*---------------------------------------------------------------------------*/
FoamFile
{
    version     2.0;
    format      ascii;
    class       volScalarField;
    location    "1.5";
    object      T;
}
// * * * * * * * * * * * * * * * * * * * * * * * * * * * * * * * * * * * * * //

dimensions      [0 0 0 1 0 0 0];

internalField   nonuniform List<scalar> 
1200
(
1
1
1
1
1
1
1
1
1
1
1.51714
2.61123
2.77036
2.76592
2.7708
2.77784
2.79934
2.83925
2.87953
2.90214
1
1
1
1
1
1
1
1
1
1
1.51523
2.61
2.77042
2.76601
2.77073
2.77764
2.79902
2.83881
2.87891
2.90159
1
1
1
1
1
1
1
1
1
1
1.50525
2.60698
2.77125
2.76667
2.77093
2.77738
2.7985
2.83815
2.87801
2.90078
1
1
1
1
1
1
1
1
1
1
1.49132
2.603
2.77311
2.76799
2.77144
2.77703
2.79756
2.83706
2.87672
2.8996
1
1
1
1
1
1
1
1
1
1
1.47652
2.59814
2.77479
2.76889
2.77168
2.77642
2.79613
2.83541
2.87501
2.89818
1
1
1
1
1
1
1
1
1
1
1.45956
2.5922
2.7758
2.76916
2.77145
2.77528
2.79412
2.83337
2.87302
2.89626
1
1
1
1
1
1
1
1
1
1
1.43727
2.58218
2.77458
2.76788
2.76979
2.77309
2.79158
2.831
2.87061
2.89383
1
1
1
1
1
1
1
1
1
1
1.40497
2.56382
2.77046
2.76343
2.76577
2.76961
2.78854
2.82827
2.8679
2.89083
1
1
1
1
1
1
1
1
1
1
1.35833
2.53292
2.76177
2.75522
2.75877
2.76442
2.78485
2.82505
2.86467
2.88724
1
1
1
1
1
1
1
1
1
1
1.29383
2.48985
2.74747
2.74345
2.74943
2.75817
2.78087
2.82137
2.86079
2.88265
1
1
1
1
1
1
1
1
1
1
1.21796
2.43922
2.73123
2.73055
2.7395
2.75169
2.77653
2.81684
2.85589
2.87736
1
1
1
1
1
1
1
1
1
1
1.14705
2.39292
2.71717
2.71947
2.73126
2.74573
2.77175
2.81134
2.84979
2.8704
1
1
1
1
1
1
1
1
1
1
1.0862
2.35942
2.70838
2.71185
2.72545
2.74087
2.76657
2.80441
2.84188
2.86223
1
1
1
1
1
1
1
1
1
1
1.032
2.33047
2.70779
2.70986
2.72143
2.73597
2.76045
2.79612
2.83245
2.85173
1
1
1
1
1
1
1
1
1
1
1.0034
2.29963
2.70955
2.70993
2.71867
2.73142
2.75367
2.78605
2.82031
2.83926
1
1
1
1
1
1
1
1
1
1
1.00017
2.26075
2.71144
2.71041
2.71638
2.72657
2.74579
2.77434
2.80627
2.8229
1
1
1
1
1
1
1
1
1
1
1
2.21081
2.71095
2.71046
2.7143
2.72194
2.73763
2.76099
2.78783
2.80159
1
1
1
1
1
1
1
1
1
1
1
2.1487
2.70564
2.70999
2.71212
2.71737
2.72897
2.74617
2.76637
2.76933
1
1
1
1
1
1
1
1
1
1
1
2.07595
2.6947
2.71076
2.71005
2.71305
2.7201
2.73037
2.73943
2.7229
1
1
1
1
1
1
1
1
1
1
1
1.99247
2.67357
2.70978
2.708
2.70885
2.70965
2.71213
2.71898
2.71103
1
1
1
1
1
1
1
1
1
1
1
1.69429
2.56681
2.68697
2.69226
2.69251
2.68462
2.67038
2.65845
2.62064
1
1
1
1
1
1
1
1
1
1
1
1.09692
2.30443
2.62962
2.65285
2.65117
2.63731
2.60421
2.5636
2.46533
1
1
1
1
1
1
1
1
1
1
1
1.00145
1.95331
2.52311
2.59715
2.59191
2.57449
2.54181
2.47876
2.36515
1
1
1
1
1
1
1
1
1
1
1
0.999996
1.27286
2.30365
2.53586
2.52534
2.51411
2.48219
2.41795
2.32288
1
1
1
1
1
1
1
1
1
1
1
0.999999
1.00983
1.92764
2.43021
2.4671
2.45135
2.42248
2.37074
2.2989
1
1
1
1
1
1
1
1
1
1
1
1
1.00001
1.20554
2.1718
2.41954
2.39543
2.37053
2.32937
2.2736
1
1
1
1
1
1
1
1
1
1
1
1
1
1.00531
1.57725
2.23684
2.35516
2.32191
2.28721
2.24414
1
1
1
1
1
1
1
1
1
1
1
1
1
1.00001
1.06158
1.85348
2.28435
2.27829
2.25087
2.21857
1
1
1
1
1
1
1
1
1
1
1
1
1
1
1.00057
1.20752
1.96282
2.23472
2.21487
2.18675
1
1
1
1
1
1
1
1
1
1
1
1
1
1
1
1.0059
1.33454
1.98315
2.17438
2.15741
1
1
1
1
1
1
1
1
1
1
1
1
1
1
1
1.00002
1.0175
1.42047
1.96388
2.11853
1
1
1
1
1
1
1
1
1
1
1
1
1
1
1
1
1.00011
1.03254
1.44743
1.95121
1
1
1
1
1
1
1
1
1
1
1
1
1
1
1
1
1
1.0003
1.04128
1.54562
1
1
1
1
1
1
1
1
1
1
1
1
1
1
1
1
1
1
1.0004
1.07292
1
1
1
1
1
1
1
1
1
1
1
1
1
1
1
1
1
1
1
1.00085
1
1
1
1
1
1
1
1
1
1
1
1
1
1
1
1
1
1
1
1
1
1
1
1
1
1
1
1
1
1
1
1
1
1
1
1
1
1
1
1
1
1
1
1
1
1
1
1
1
1
1
1
1
1
1
1
1
1
1
1
1
1
1
1
1
1
1
1
1
1
1
1
1
1
1
1
1
1
1
1
1
1
1
1
1
1
1
1
1
1
1
1
1
1
1
1
1
1
1
1
1.75655
1.81895
1.90374
1.88318
1.83956
1.83097
1.85084
1.85732
1.84842
1.82207
1.84263
2.06465
2.3964
2.52169
2.50362
2.43267
2.34576
2.27506
2.21974
2.17086
2.10135
1.86516
1.8307
1.7993
1.77457
1.77396
1.80064
1.81343
1.80735
1.79703
1.89959
2.04537
2.13543
2.2382
2.29384
2.30685
2.26145
2.20633
2.16182
2.12533
2.07344
1.80145
1.7218
1.67982
1.67774
1.68299
1.70578
1.72157
1.72553
1.76289
1.93714
1.94946
1.90076
1.93682
2.01336
2.07699
2.10703
2.08712
2.05323
2.01621
2.07988
1.81145
1.69037
1.5968
1.55861
1.56736
1.59338
1.61224
1.63184
1.75628
1.91914
1.88276
1.81169
1.74672
1.76001
1.83465
1.9017
1.91467
1.9188
1.9017
2.09982
1.8276
1.67975
1.55319
1.49653
1.49732
1.5137
1.53105
1.58413
1.81589
1.87113
1.8382
1.77461
1.69865
1.63597
1.6296
1.6925
1.75868
1.78545
1.77673
2.11065
1.86298
1.69793
1.55639
1.48221
1.46027
1.46522
1.49107
1.63716
1.86556
1.85028
1.80715
1.74358
1.673
1.5948
1.5382
1.52072
1.57717
1.65534
1.6663
2.10853
1.89903
1.7284
1.57197
1.48751
1.42881
1.43824
1.48875
1.75756
1.87217
1.84639
1.7842
1.7057
1.62713
1.56088
1.50421
1.46032
1.43162
1.47138
1.55386
2.10195
1.92639
1.75339
1.61329
1.51337
1.41935
1.43398
1.56124
1.84085
1.84926
1.80878
1.73551
1.65993
1.58727
1.52915
1.47582
1.4277
1.38716
1.35719
1.39253
2.08547
1.94376
1.77273
1.65887
1.5368
1.44039
1.45424
1.70419
1.85237
1.82524
1.76375
1.68381
1.6119
1.549
1.49778
1.44952
1.39879
1.35509
1.3202
1.2753
2.06577
1.9493
1.79374
1.69198
1.55041
1.47581
1.55534
1.81568
1.82637
1.78398
1.71094
1.63555
1.56583
1.51453
1.46795
1.42014
1.36688
1.32603
1.2843
1.22839
2.05049
1.94379
1.81106
1.70781
1.56362
1.51462
1.73012
1.86424
1.81865
1.73775
1.65812
1.58932
1.52354
1.47649
1.43668
1.38683
1.33314
1.2932
1.25029
1.19084
2.03265
1.93147
1.82197
1.70066
1.58183
1.60936
1.88773
1.86754
1.79383
1.69832
1.61542
1.54611
1.48195
1.43723
1.39008
1.3361
1.29393
1.25603
1.21497
1.15618
1.98831
1.92916
1.822
1.6771
1.61537
1.79648
1.94466
1.87826
1.77175
1.66868
1.58093
1.50602
1.44515
1.39676
1.34108
1.28735
1.2484
1.21097
1.17164
1.11935
1.93145
1.91443
1.82651
1.67869
1.6993
1.98338
1.9594
1.87099
1.75537
1.64892
1.55285
1.46955
1.40571
1.34968
1.29197
1.24283
1.20874
1.17256
1.13581
1.08739
1.7759
1.89958
1.82859
1.71383
1.88768
2.05776
1.97033
1.84907
1.72646
1.61903
1.52204
1.43845
1.37386
1.31414
1.25701
1.21122
1.177
1.13847
1.10192
1.06004
1.54657
1.87512
1.82645
1.82501
2.1021
2.07276
1.95863
1.82555
1.70188
1.59271
1.49479
1.41221
1.3453
1.28698
1.23894
1.19331
1.1528
1.11133
1.07652
1.04048
1.21834
1.74617
1.8025
2.03609
2.17224
2.0522
1.91553
1.78376
1.66514
1.56377
1.4741
1.39673
1.32919
1.26972
1.21765
1.17066
1.13118
1.09169
1.05846
1.026
1.04881
1.57581
1.78625
2.2205
2.17032
2.02237
1.87578
1.74949
1.63774
1.54247
1.45801
1.38488
1.32049
1.26255
1.20988
1.16409
1.12471
1.08547
1.05188
1.01484
1.00188
1.40573
1.84297
2.20357
2.11656
1.98206
1.84646
1.72897
1.64346
1.55726
1.47574
1.4037
1.33862
1.27993
1.22628
1.17839
1.13304
1.09099
1.0561
1.01134
0.999963
1.31717
1.91227
2.24989
2.12093
1.96574
1.83086
1.72218
1.62472
1.53727
1.45622
1.38525
1.31951
1.26191
1.20837
1.16249
1.11555
1.07468
1.03913
0.99752
)
;

boundaryField
{
    inlet
    {
        type            fixedValue;
        value           uniform 1;
    }
    outlet
    {
        type            inletOutlet;
        inletValue      uniform 1;
        value           nonuniform List<scalar> 
20
(
2.17213
2.12625
2.01679
1.90175
1.77606
1.66519
1.55187
1.39046
1.27464
1.2282
1.19066
1.15586
1.11917
1.08713
1.05991
1.04042
1.02595
1.01474
1.01118
0.997364
)
;
    }
    bottom
    {
        type            symmetryPlane;
    }
    top
    {
        type            symmetryPlane;
    }
    obstacle
    {
        type            zeroGradient;
    }
    defaultFaces
    {
        type            empty;
    }
}


// ************************************************************************* //
