/*--------------------------------*- C++ -*----------------------------------*\
  =========                 |
  \\      /  F ield         | OpenFOAM: The Open Source CFD Toolbox
   \\    /   O peration     | Website:  https://openfoam.org
    \\  /    A nd           | Version:  6.0
     \\/     M anipulation  |
\*---------------------------------------------------------------------------*/
FoamFile
{
    version     2.0;
    format      ascii;
    class       volVectorField;
    location    "1.5";
    object      U;
}
// * * * * * * * * * * * * * * * * * * * * * * * * * * * * * * * * * * * * * //

dimensions      [0 1 -1 0 0 0 0];

internalField   nonuniform List<vector> 
1200
(
(3 1.5902e-15 0)
(3 -1.24944e-15 0)
(3 -2.32334e-15 0)
(3 -2.08584e-15 0)
(3 -8.36403e-16 0)
(3 3.61409e-16 0)
(3 8.26077e-17 0)
(3 -3.40757e-16 0)
(3 -1.96193e-16 0)
(3 -8.05425e-16 0)
(2.46761 0.00486124 0)
(0.836076 0.00853441 0)
(0.651457 0.0101939 0)
(0.584825 0.0120919 0)
(0.501873 0.0136099 0)
(0.418255 0.0140561 0)
(0.336009 0.0137806 0)
(0.248421 0.0141846 0)
(0.159084 0.0152996 0)
(0.062976 0.0186173 0)
(3 5.67928e-16 0)
(3 -1.13586e-16 0)
(3 -3.71735e-15 0)
(3 -2.72605e-15 0)
(3 -1.94128e-15 0)
(3 2.40595e-15 0)
(3 3.30431e-16 0)
(3 -1.09455e-15 0)
(3 -6.60862e-16 0)
(3 -7.53795e-16 0)
(2.466 0.0172929 0)
(0.830505 0.0284357 0)
(0.642579 0.0289875 0)
(0.574349 0.03402 0)
(0.490995 0.0386665 0)
(0.408359 0.0402521 0)
(0.328355 0.0402419 0)
(0.243492 0.0423557 0)
(0.156618 0.0463126 0)
(0.0627526 0.0563974 0)
(3 7.22817e-17 0)
(3 1.34238e-16 0)
(3 -3.12877e-15 0)
(3 -8.67381e-16 0)
(3 -8.77707e-16 0)
(3 1.3527e-15 0)
(3 -1.50759e-15 0)
(3 -2.06519e-16 0)
(3 2.99453e-16 0)
(3 -4.13039e-17 0)
(2.48123 0.0329651 0)
(0.833826 0.0502227 0)
(0.637264 0.0503129 0)
(0.564527 0.0580243 0)
(0.479547 0.0647094 0)
(0.397441 0.0663704 0)
(0.319027 0.0657248 0)
(0.236231 0.0691797 0)
(0.151884 0.076014 0)
(0.0619029 0.0932582 0)
(3 1.75541e-16 0)
(3 4.64668e-16 0)
(3 5.98906e-16 0)
(3 -7.22817e-16 0)
(3 1.40433e-15 0)
(3 -1.3114e-15 0)
(3 -2.62279e-15 0)
(3 -9.49989e-16 0)
(3 2.27171e-16 0)
(3 1.55922e-15 0)
(2.50513 0.0451846 0)
(0.839043 0.0739012 0)
(0.630341 0.0734775 0)
(0.553056 0.0825887 0)
(0.467861 0.0903436 0)
(0.387909 0.0917657 0)
(0.31218 0.0907547 0)
(0.231315 0.0956967 0)
(0.148149 0.105118 0)
(0.0611809 0.129327 0)
(3 5.16298e-17 0)
(3 1.44563e-15 0)
(3 4.70864e-15 0)
(3 2.56084e-15 0)
(3 -7.53795e-16 0)
(3 -3.1804e-15 0)
(3 -4.02713e-16 0)
(3 -1.27009e-15 0)
(3 5.3695e-16 0)
(3 3.14942e-15 0)
(2.52319 0.055608 0)
(0.838716 0.100423 0)
(0.620615 0.0980502 0)
(0.542412 0.107639 0)
(0.459542 0.115524 0)
(0.383897 0.116642 0)
(0.311812 0.115407 0)
(0.2322 0.122176 0)
(0.148181 0.134224 0)
(0.0620426 0.165106 0)
(3 2.06519e-17 0)
(3 1.01194e-15 0)
(3 4.17169e-15 0)
(3 3.66572e-15 0)
(3 1.76574e-15 0)
(3 -2.17878e-15 0)
(3 2.83964e-15 0)
(3 4.2543e-15 0)
(3 7.85806e-15 0)
(3 3.92387e-15 0)
(2.54392 0.0704485 0)
(0.839411 0.130144 0)
(0.612292 0.122803 0)
(0.537321 0.132473 0)
(0.460013 0.140286 0)
(0.389323 0.140607 0)
(0.319081 0.139243 0)
(0.237809 0.148906 0)
(0.149877 0.16405 0)
(0.0625371 0.201235 0)
(3 1.0326e-16 0)
(3 5.78254e-16 0)
(3 -3.20105e-16 0)
(3 1.10488e-15 0)
(3 -5.16298e-17 0)
(3 -2.00324e-15 0)
(3 -1.49726e-15 0)
(3 8.05425e-16 0)
(3 2.6641e-15 0)
(3 5.16298e-16 0)
(2.5723 0.0896104 0)
(0.844713 0.163354 0)
(0.611019 0.147118 0)
(0.54324 0.156544 0)
(0.472061 0.162999 0)
(0.404036 0.16282 0)
(0.331878 0.163248 0)
(0.245739 0.177334 0)
(0.152166 0.195333 0)
(0.0632251 0.237763 0)
(3 6.19558e-17 0)
(3 4.13039e-16 0)
(3 -1.87933e-15 0)
(3 -3.39724e-15 0)
(3 -5.11135e-15 0)
(3 -4.10973e-15 0)
(3 -1.29075e-15 0)
(3 -1.99291e-15 0)
(3 -5.43146e-15 0)
(3 -5.33852e-15 0)
(2.61583 0.111331 0)
(0.860521 0.199135 0)
(0.622976 0.171337 0)
(0.562446 0.177061 0)
(0.494125 0.183417 0)
(0.424851 0.185432 0)
(0.348335 0.188952 0)
(0.256583 0.20789 0)
(0.15614 0.228432 0)
(0.0634225 0.274851 0)
(3 -6.81514e-16 0)
(3 -1.18749e-15 0)
(3 -1.73476e-15 0)
(3 -1.60052e-15 0)
(3 -1.29075e-15 0)
(3 -3.35594e-15 0)
(3 -2.79834e-15 0)
(3 -3.08746e-15 0)
(3 -7.03198e-15 0)
(3 -8.77707e-15 0)
(2.68781 0.134861 0)
(0.894153 0.232542 0)
(0.652022 0.187502 0)
(0.593002 0.19561 0)
(0.522695 0.203989 0)
(0.44975 0.208585 0)
(0.367575 0.215903 0)
(0.269824 0.240554 0)
(0.161628 0.263748 0)
(0.0640961 0.312859 0)
(3 -1.34238e-16 0)
(3 -2.57117e-15 0)
(3 -1.42498e-15 0)
(3 -4.44016e-16 0)
(3 6.19558e-16 0)
(3 -3.82061e-16 0)
(3 -2.02389e-15 0)
(3 -2.20976e-15 0)
(3 -3.35594e-15 0)
(3 -4.16136e-15 0)
(2.77967 0.143535 0)
(0.943767 0.25711 0)
(0.689733 0.205003 0)
(0.628234 0.21526 0)
(0.552573 0.225883 0)
(0.473323 0.234528 0)
(0.383372 0.246756 0)
(0.279715 0.276801 0)
(0.165617 0.301722 0)
(0.0632051 0.351728 0)
(3 -2.89127e-16 0)
(3 -3.30431e-16 0)
(3 -1.89998e-15 0)
(3 -7.12492e-16 0)
(3 1.04292e-15 0)
(3 2.22008e-15 0)
(3 -2.06519e-17 0)
(3 -3.263e-15 0)
(3 -3.4592e-15 0)
(3 -4.2956e-15 0)
(2.89671 0.125501 0)
(1.00369 0.269558 0)
(0.726288 0.221501 0)
(0.660242 0.236441 0)
(0.578238 0.249961 0)
(0.494246 0.262447 0)
(0.400391 0.278713 0)
(0.294485 0.313924 0)
(0.175171 0.341326 0)
(0.0658447 0.391973 0)
(3 -3.92387e-16 0)
(3 6.81514e-16 0)
(3 -4.3369e-16 0)
(3 1.02227e-15 0)
(3 5.67928e-16 0)
(3 2.16845e-16 0)
(3 -9.29337e-16 0)
(3 -3.84126e-15 0)
(3 -6.4434e-15 0)
(3 -5.23526e-15 0)
(2.978 0.0788382 0)
(1.04974 0.280195 0)
(0.748627 0.241008 0)
(0.682076 0.25958 0)
(0.596917 0.275954 0)
(0.511646 0.291382 0)
(0.415765 0.312161 0)
(0.30739 0.353523 0)
(0.182779 0.384189 0)
(0.0662868 0.434678 0)
(3 -5.16298e-17 0)
(3 0 0)
(3 1.10488e-15 0)
(3 3.00486e-15 0)
(3 7.84773e-16 0)
(3 7.95099e-16 0)
(3 5.16298e-17 0)
(3 -2.08584e-15 0)
(3 -4.0581e-15 0)
(3 -7.95099e-16 0)
(2.99741 0.0460749 0)
(1.07779 0.290101 0)
(0.753204 0.261153 0)
(0.690357 0.284755 0)
(0.609176 0.302128 0)
(0.525142 0.320753 0)
(0.428113 0.346598 0)
(0.320488 0.394214 0)
(0.193828 0.42884 0)
(0.0712265 0.479807 0)
(3 2.06519e-17 0)
(3 1.85867e-16 0)
(3 1.12553e-15 0)
(3 1.9103e-15 0)
(3 4.80157e-15 0)
(3 4.58473e-15 0)
(3 7.12492e-16 0)
(3 -9.80967e-16 0)
(3 1.41466e-15 0)
(3 4.28528e-15 0)
(3.00438 0.0224858 0)
(1.10805 0.297113 0)
(0.753077 0.280883 0)
(0.690924 0.308333 0)
(0.611811 0.328173 0)
(0.530011 0.350647 0)
(0.435898 0.381217 0)
(0.332264 0.43562 0)
(0.204024 0.476561 0)
(0.0732469 0.529205 0)
(3 1.23912e-16 0)
(3 3.82061e-16 0)
(3 7.95099e-16 0)
(3 -3.40757e-16 0)
(3 1.73476e-15 0)
(3 4.21299e-15 0)
(3 4.55375e-15 0)
(3 4.73962e-15 0)
(3 3.21137e-15 0)
(3 1.81737e-15 0)
(3.00594 0.00423129 0)
(1.14876 0.308891 0)
(0.747157 0.298601 0)
(0.684261 0.330477 0)
(0.609368 0.352568 0)
(0.53256 0.379096 0)
(0.443546 0.414632 0)
(0.34746 0.47667 0)
(0.220593 0.526102 0)
(0.0823575 0.583008 0)
(3 -2.58149e-16 0)
(3 -1.23912e-16 0)
(3 2.06519e-17 0)
(3 -2.34399e-15 0)
(3 -5.20429e-15 0)
(3 -1.3114e-15 0)
(3 6.9184e-16 0)
(3 1.17716e-15 0)
(3 4.95646e-16 0)
(3 1.40433e-15 0)
(3.00081 0.000269111 0)
(1.20562 0.32811 0)
(0.741058 0.318173 0)
(0.674994 0.350508 0)
(0.60671 0.375236 0)
(0.537619 0.405751 0)
(0.455481 0.445709 0)
(0.367157 0.516529 0)
(0.238523 0.580158 0)
(0.086319 0.645283 0)
(3 3.09779e-16 0)
(3 9.70641e-16 0)
(3 1.44563e-16 0)
(3 -3.42822e-15 0)
(3 -4.74994e-15 0)
(3 -2.80866e-15 0)
(3 -4.13039e-17 0)
(3 -5.16298e-16 0)
(3 3.57278e-15 0)
(3 2.34399e-15 0)
(3.00002 6.74442e-06 0)
(1.28288 0.34929 0)
(0.74303 0.341087 0)
(0.669867 0.370583 0)
(0.605956 0.396127 0)
(0.54395 0.430404 0)
(0.467235 0.475591 0)
(0.389149 0.556999 0)
(0.264989 0.637557 0)
(0.101711 0.715985 0)
(3 8.05425e-16 0)
(3 7.33143e-16 0)
(3 -3.71735e-16 0)
(3 -2.13747e-15 0)
(3 2.00324e-15 0)
(3 1.28042e-15 0)
(3 7.74447e-16 0)
(3 1.70378e-15 0)
(3 1.70378e-15 0)
(3 -7.74447e-16 0)
(3 4.03107e-08 0)
(1.38124 0.375911 0)
(0.753052 0.367502 0)
(0.66941 0.390094 0)
(0.609979 0.415916 0)
(0.555508 0.452885 0)
(0.484442 0.502918 0)
(0.418425 0.594178 0)
(0.296692 0.701346 0)
(0.109727 0.805243 0)
(3 7.74447e-16 0)
(3 -4.23365e-16 0)
(3 -2.64345e-15 0)
(3 1.20814e-15 0)
(3 1.8277e-15 0)
(3 8.88033e-16 0)
(3 4.23365e-16 0)
(3 2.57117e-15 0)
(3 1.27009e-15 0)
(3 5.26624e-16 0)
(3 4.54815e-11 0)
(1.50472 0.397432 0)
(0.767263 0.399074 0)
(0.671403 0.40989 0)
(0.616363 0.434048 0)
(0.570017 0.472122 0)
(0.505603 0.528667 0)
(0.451283 0.632753 0)
(0.345287 0.768007 0)
(0.136748 0.90928 0)
(3 9.29337e-17 0)
(3 4.3369e-16 0)
(3 1.32172e-15 0)
(3 4.5331e-15 0)
(3 2.82931e-15 0)
(3 1.80704e-15 0)
(3 3.54181e-15 0)
(3 3.68637e-15 0)
(3 2.35432e-15 0)
(3 1.66248e-15 0)
(3 9.39663e-15 0)
(1.66858 0.427046 0)
(0.801719 0.432779 0)
(0.684712 0.428178 0)
(0.625261 0.451304 0)
(0.580793 0.490767 0)
(0.529709 0.551075 0)
(0.492591 0.661492 0)
(0.414484 0.834676 0)
(0.207117 1.07582 0)
(3 -2.16845e-16 0)
(3 1.44563e-16 0)
(3 1.02227e-15 0)
(3 1.43531e-15 0)
(3 1.40949e-15 0)
(3 1.48178e-15 0)
(3 1.25977e-15 0)
(3 3.76898e-16 0)
(3 1.88449e-16 0)
(3 7.07329e-16 0)
(3 1.13069e-15 0)
(2.1757 0.433378 0)
(0.884618 0.54258 0)
(0.741089 0.497721 0)
(0.680298 0.507973 0)
(0.630304 0.542909 0)
(0.597719 0.606298 0)
(0.578792 0.732817 0)
(0.607426 0.92446 0)
(0.710678 1.18038 0)
(3 2.83964e-17 0)
(3 1.2133e-16 0)
(3 -4.38853e-16 0)
(3 -7.35725e-16 0)
(3 -5.85998e-16 0)
(3 -7.22817e-17 0)
(3 -1.172e-15 0)
(3 -9.19011e-16 0)
(3 -1.17458e-15 0)
(3 -1.59794e-15 0)
(3 -2.51437e-15 0)
(3.05736 0.0893304 0)
(1.22887 0.600717 0)
(0.893867 0.561459 0)
(0.831399 0.564327 0)
(0.774825 0.59353 0)
(0.747789 0.65416 0)
(0.74786 0.761469 0)
(0.849888 0.910108 0)
(1.11743 1.02945 0)
(3 4.64668e-17 0)
(3 1.44563e-16 0)
(3 -6.60862e-16 0)
(3 -6.42791e-16 0)
(3 -4.54342e-16 0)
(3 -3.87224e-17 0)
(3 -6.66025e-16 0)
(3 1.29075e-17 0)
(3 1.04034e-15 0)
(3 -2.99453e-16 0)
(3 -1.25202e-15 0)
(3.01149 0.000431424 0)
(1.76919 0.567916 0)
(0.970813 0.674948 0)
(0.909779 0.676859 0)
(0.886584 0.703436 0)
(0.881464 0.740435 0)
(0.915404 0.803386 0)
(1.03411 0.886068 0)
(1.27529 0.950202 0)
(3 -2.19427e-16 0)
(3 -7.35725e-16 0)
(3 -5.31787e-16 0)
(3 -6.32465e-16 0)
(3 -8.93196e-16 0)
(3 -9.96456e-16 0)
(3 -5.96324e-16 0)
(3 -1.01453e-15 0)
(3 1.00678e-16 0)
(3 6.01487e-16 0)
(3 1.83028e-15 0)
(3.00005 7.36511e-07 0)
(2.86549 0.214736 0)
(1.22885 0.700418 0)
(1.01182 0.722581 0)
(1.01334 0.726489 0)
(1.01776 0.761284 0)
(1.06288 0.804785 0)
(1.16806 0.855888 0)
(1.35351 0.891382 0)
(3 -1.0326e-17 0)
(3 -1.18232e-15 0)
(3 -8.88033e-16 0)
(3 -1.11004e-15 0)
(3 -1.71411e-15 0)
(3 -1.99033e-15 0)
(3 -2.86545e-16 0)
(3 -2.7622e-16 0)
(3 -3.53664e-16 0)
(3 -5.83417e-16 0)
(3 4.90483e-17 0)
(3 -1.59877e-06 0)
(3.02172 0.00596671 0)
(1.83509 0.642822 0)
(1.10103 0.789171 0)
(1.08815 0.790495 0)
(1.1131 0.809324 0)
(1.16534 0.834713 0)
(1.25737 0.859249 0)
(1.39733 0.875809 0)
(3 2.19427e-16 0)
(3 7.43469e-16 0)
(3 6.24721e-16 0)
(3 5.57602e-16 0)
(3 8.67381e-16 0)
(3 6.86677e-16 0)
(3 8.38985e-16 0)
(3 9.39663e-16 0)
(3 1.38884e-15 0)
(3 1.30365e-15 0)
(3 1.09713e-15 0)
(3 -2.2061e-07 0)
(3.00017 6.10772e-05 0)
(2.93293 0.177038 0)
(1.47393 0.796752 0)
(1.16056 0.817332 0)
(1.20552 0.819265 0)
(1.24589 0.836777 0)
(1.32309 0.850195 0)
(1.43064 0.860665 0)
(3 -1.54889e-16 0)
(3 5.29206e-16 0)
(3 1.45854e-15 0)
(3 2.10133e-15 0)
(3 2.40595e-15 0)
(3 1.77607e-15 0)
(3 1.283e-15 0)
(3 1.42498e-15 0)
(3 1.19781e-15 0)
(3 1.68313e-15 0)
(3 2.51954e-15 0)
(3 -8.39993e-09 0)
(3 8.93849e-09 0)
(3.00869 0.00569051 0)
(2.4285 0.53165 0)
(1.33922 0.86335 0)
(1.25906 0.870699 0)
(1.31421 0.871037 0)
(1.37637 0.873461 0)
(1.45817 0.873279 0)
(3 -2.19427e-16 0)
(3 -7.04747e-16 0)
(3 -6.9184e-16 0)
(3 -4.77576e-16 0)
(3 -5.03391e-16 0)
(3 -3.76898e-16 0)
(3 -5.55021e-16 0)
(3 -5.05972e-16 0)
(3 -7.04747e-16 0)
(3 -5.29206e-16 0)
(3 -7.22817e-16 0)
(3 -2.24403e-11 0)
(3 -6.48145e-09 0)
(3.00003 4.60295e-05 0)
(3.01404 0.0496328 0)
(1.96994 0.732509 0)
(1.36156 0.891436 0)
(1.37384 0.89412 0)
(1.43652 0.884432 0)
(1.49706 0.87828 0)
(3 1.18749e-16 0)
(3 2.19427e-16 0)
(3 1.18749e-16 0)
(3 -3.09779e-17 0)
(3 2.19427e-16 0)
(3 2.60731e-16 0)
(3 6.47954e-16 0)
(3 6.55699e-16 0)
(3 -6.45373e-17 0)
(3 -1.41982e-16 0)
(3 -7.89936e-16 0)
(3 -8.45438e-15 0)
(3 -2.55459e-09 0)
(3 9.68485e-09 0)
(3.00083 0.00138874 0)
(2.90025 0.190704 0)
(1.81206 0.826634 0)
(1.44392 0.917734 0)
(1.48261 0.913161 0)
(1.54093 0.8966 0)
(3 1.18749e-16 0)
(3 1.31656e-16 0)
(3 4.00131e-16 0)
(3 7.48632e-17 0)
(3 1.39401e-16 0)
(3 -1.39401e-16 0)
(3 4.18202e-16 0)
(3 3.20105e-16 0)
(3 1.16167e-16 0)
(3 -9.03522e-17 0)
(3 6.45373e-17 0)
(3 3.76898e-16 0)
(3 -2.86703e-10 0)
(3 -2.78133e-10 0)
(3 2.08424e-06 0)
(3.00182 0.00940625 0)
(2.74503 0.333578 0)
(1.77353 0.871036 0)
(1.5354 0.938517 0)
(1.57074 0.931454 0)
(3 -1.9103e-16 0)
(3 -4.23365e-16 0)
(3 -8.90614e-16 0)
(3 -6.60862e-16 0)
(3 -9.73222e-16 0)
(3 -1.29333e-15 0)
(3 -2.01098e-15 0)
(3 -3.05132e-15 0)
(3 -2.01356e-15 0)
(3 -2.59182e-15 0)
(3 -2.50921e-15 0)
(3 -2.13747e-15 0)
(3 -3.39071e-12 0)
(3 -5.76016e-11 0)
(3 3.83729e-10 0)
(3 5.55425e-05 0)
(2.99862 0.022362 0)
(2.60744 0.436602 0)
(1.80831 0.893613 0)
(1.61882 0.950642 0)
(3 2.22008e-16 0)
(3 5.16298e-16 0)
(3 5.55021e-16 0)
(3 4.10457e-16 0)
(3 -1.47661e-15 0)
(3 -3.04616e-15 0)
(3 -3.96775e-15 0)
(3 -4.76027e-15 0)
(3 -3.90838e-15 0)
(3 -3.92387e-15 0)
(3 -2.85513e-15 0)
(3 -6.63443e-16 0)
(3 -2.31302e-15 0)
(3 -2.21034e-12 0)
(3 -1.67817e-12 0)
(3 3.2821e-08 0)
(2.99999 0.000243744 0)
(2.98472 0.0418476 0)
(2.59976 0.479272 0)
(1.80252 0.916438 0)
(3 2.14264e-16 0)
(3 5.21461e-16 0)
(3 7.17654e-16 0)
(3 1.00678e-16 0)
(3 3.82061e-16 0)
(3 -7.48632e-17 0)
(3 5.83417e-16 0)
(3 1.34754e-15 0)
(3 7.0991e-16 0)
(3 2.41628e-15 0)
(3 2.32334e-15 0)
(3 2.90418e-15 0)
(3 3.18298e-15 0)
(3 -7.16364e-15 0)
(3 -2.85159e-13 0)
(3 4.34804e-12 0)
(3 2.03438e-07 0)
(2.99984 0.000759849 0)
(2.99305 0.0429987 0)
(2.44682 0.589686 0)
(3 3.76898e-16 0)
(3 -3.09779e-17 0)
(3 -1.64183e-15 0)
(3 -1.32689e-15 0)
(3 1.66764e-15 0)
(3 3.29656e-15 0)
(3 6.07941e-15 0)
(3 5.90645e-15 0)
(3 5.07779e-15 0)
(3 3.95484e-15 0)
(3 2.49372e-15 0)
(3 9.24174e-16 0)
(3 -1.05325e-15 0)
(3 -2.31302e-15 0)
(3 -1.50269e-14 0)
(3 -1.45828e-14 0)
(3 5.35839e-11 0)
(3 8.04879e-07 0)
(2.99993 0.00111609 0)
(3.00006 0.0609419 0)
(3 1.60052e-16 0)
(3 -1.26493e-16 0)
(3 4.02713e-16 0)
(3 1.93612e-16 0)
(3 -3.56246e-16 0)
(3 -1.13586e-16 0)
(3 1.18749e-16 0)
(3 5.85998e-16 0)
(3 1.18749e-16 0)
(3 -7.48632e-16 0)
(3 -2.12973e-15 0)
(3 -2.89643e-15 0)
(3 -1.49468e-15 0)
(3 -8.33822e-16 0)
(3 -1.78897e-15 0)
(3 -6.39952e-15 0)
(3 -2.02389e-15 0)
(3 2.02955e-10 0)
(3 2.86729e-06 0)
(3.0025 0.00045556 0)
(3 -6.99584e-16 0)
(3 -4.28528e-16 0)
(3 5.78254e-16 0)
(3 1.06874e-15 0)
(3 -4.13039e-17 0)
(3 -3.22686e-16 0)
(3 -1.86384e-15 0)
(3 -1.59794e-15 0)
(3 -1.55406e-15 0)
(3 -1.70378e-15 0)
(3 -1.56438e-15 0)
(3 -1.06874e-15 0)
(3 -9.65478e-16 0)
(3 -3.51083e-16 0)
(3 -9.78385e-16 0)
(3 -2.12715e-15 0)
(3 -8.95777e-16 0)
(3 1.1467e-14 0)
(3 1.35169e-09 0)
(3.00001 4.06439e-07 0)
(3 -1.70378e-16 0)
(3 -4.49179e-16 0)
(3 -9.68059e-16 0)
(3 -6.0665e-16 0)
(3 -5.05972e-16 0)
(3 -5.42113e-17 0)
(3 -3.84642e-16 0)
(3 -4.54342e-16 0)
(3 -1.12295e-15 0)
(3 -7.69284e-16 0)
(3 1.52308e-16 0)
(3 -1.05067e-15 0)
(3 -3.5005e-15 0)
(3 -5.27657e-15 0)
(3 -3.41789e-15 0)
(3 -2.4266e-15 0)
(3 -1.69088e-15 0)
(3 1.1849e-15 0)
(3 1.58016e-13 0)
(3 9.53431e-12 0)
(3 1.96193e-16 0)
(3 4.95646e-16 0)
(3 5.03391e-16 0)
(3 6.42791e-16 0)
(3 8.95777e-16 0)
(3 6.53117e-16 0)
(3 1.45596e-15 0)
(3 1.63925e-15 0)
(3 6.4021e-16 0)
(3 7.58958e-16 0)
(3 6.09232e-16 0)
(3 7.07329e-16 0)
(3 1.53082e-15 0)
(3 2.10392e-15 0)
(3 2.09875e-15 0)
(3 1.97484e-15 0)
(3 1.54889e-15 0)
(3 1.91547e-15 0)
(3 -4.62087e-16 0)
(3 -1.34841e-11 0)
(3 6.97003e-17 0)
(3 3.1236e-16 0)
(3 5.21461e-16 0)
(3 2.71057e-16 0)
(3 3.74316e-16 0)
(3 3.71735e-16 0)
(3 3.22686e-16 0)
(3 2.2459e-16 0)
(3 6.68606e-16 0)
(3 1.43015e-15 0)
(3 1.94903e-15 0)
(3 3.26559e-15 0)
(3 4.95646e-15 0)
(3 5.92194e-15 0)
(3 5.70251e-15 0)
(3 5.56828e-15 0)
(3 4.76543e-15 0)
(3 1.90514e-15 0)
(3 4.1562e-16 0)
(3 -1.62532e-12 0)
(3 -2.73638e-16 0)
(3 -2.86545e-16 0)
(3 -4.05294e-16 0)
(3 -5.93743e-16 0)
(3 -7.7961e-16 0)
(3 -6.01487e-16 0)
(3 -1.16683e-15 0)
(3 -1.51017e-15 0)
(3 -1.34238e-15 0)
(3 -7.53795e-16 0)
(3 1.41982e-16 0)
(3 5.1888e-16 0)
(3 9.19011e-16 0)
(3 9.62896e-16 0)
(3 1.96451e-15 0)
(3 1.81221e-15 0)
(3 2.09617e-15 0)
(3 1.27526e-15 0)
(3 2.41369e-15 0)
(3 -4.58292e-14 0)
(1.74443 1.30257 0)
(2.16036 0.0662123 0)
(2.22338 -0.055243 0)
(2.15937 -0.0481001 0)
(2.18605 -0.0473798 0)
(2.26089 -0.0326034 0)
(2.30694 -0.0189947 0)
(2.33553 -0.0160334 0)
(2.37928 -0.0069719 0)
(2.4396 0.00129679 0)
(2.4335 -0.043086 0)
(2.27454 -0.208848 0)
(2.14189 -0.263486 0)
(2.14938 -0.203084 0)
(2.18641 -0.0683769 0)
(2.28984 0.00345213 0)
(2.40251 0.0187771 0)
(2.48937 0.0299507 0)
(2.56915 0.0339339 0)
(2.68887 0.037094 0)
(1.8622 0.654969 0)
(2.32196 -0.163469 0)
(2.36362 -0.155479 0)
(2.32395 -0.0752448 0)
(2.31529 -0.0372948 0)
(2.33664 -0.0238512 0)
(2.36476 -0.0181995 0)
(2.38562 -0.0124424 0)
(2.42096 0.0128017 0)
(2.45885 -0.00718714 0)
(2.42852 -0.228832 0)
(2.30739 -0.597872 0)
(2.29252 -0.530115 0)
(2.2302 -0.217954 0)
(2.24698 -0.0129023 0)
(2.3523 0.0670732 0)
(2.43195 0.0812182 0)
(2.51607 0.078664 0)
(2.60036 0.0868838 0)
(2.7168 0.074113 0)
(1.86161 0.714073 0)
(2.29494 0.239786 0)
(2.50866 -0.0383206 0)
(2.52788 -0.0592908 0)
(2.51594 -0.0720775 0)
(2.48125 -0.0399947 0)
(2.47861 -0.0251596 0)
(2.48294 -0.00317277 0)
(2.51257 0.0148457 0)
(2.5118 -0.0694207 0)
(2.39611 -0.422215 0)
(2.33027 -0.696375 0)
(2.42063 -0.706963 0)
(2.46359 -0.519874 0)
(2.47416 -0.249683 0)
(2.46687 -0.0273307 0)
(2.51261 0.0728289 0)
(2.56714 0.131099 0)
(2.64001 0.135773 0)
(2.74272 0.0991289 0)
(1.81191 0.753843 0)
(2.27655 0.369853 0)
(2.56348 -0.0290408 0)
(2.63683 -0.135079 0)
(2.61631 -0.1354 0)
(2.575 -0.105289 0)
(2.57548 -0.0507732 0)
(2.57202 -0.00974196 0)
(2.59263 -0.0154446 0)
(2.53698 -0.212041 0)
(2.34652 -0.578755 0)
(2.40044 -0.693477 0)
(2.45244 -0.709522 0)
(2.52701 -0.665722 0)
(2.5781 -0.505462 0)
(2.59982 -0.247394 0)
(2.6135 -0.0460578 0)
(2.643 0.0840069 0)
(2.67467 0.180639 0)
(2.75448 0.184101 0)
(1.7775 0.748723 0)
(2.18314 0.522186 0)
(2.4893 0.127843 0)
(2.62578 0.0100951 0)
(2.62478 -0.0967864 0)
(2.62829 -0.0886427 0)
(2.63647 -0.0385705 0)
(2.64127 0.00520808 0)
(2.63373 -0.0609474 0)
(2.44761 -0.407723 0)
(2.33935 -0.655481 0)
(2.42379 -0.686619 0)
(2.47573 -0.676102 0)
(2.56417 -0.651467 0)
(2.65341 -0.610046 0)
(2.68644 -0.468032 0)
(2.71231 -0.231106 0)
(2.6995 -0.0099375 0)
(2.73173 0.130007 0)
(2.78187 0.17411 0)
(1.75607 0.75707 0)
(2.10551 0.599281 0)
(2.40736 0.250847 0)
(2.59388 0.0758451 0)
(2.60817 -0.1261 0)
(2.64851 -0.101703 0)
(2.67155 -0.0404595 0)
(2.67809 -0.00627518 0)
(2.60765 -0.175599 0)
(2.31733 -0.573565 0)
(2.38058 -0.675635 0)
(2.42949 -0.661565 0)
(2.50069 -0.63083 0)
(2.58437 -0.60494 0)
(2.67189 -0.586892 0)
(2.73763 -0.551783 0)
(2.76959 -0.449859 0)
(2.79193 -0.242456 0)
(2.79811 -0.0223824 0)
(2.81013 0.171434 0)
(1.72863 0.787913 0)
(2.05008 0.633044 0)
(2.33441 0.352844 0)
(2.50956 0.198253 0)
(2.60223 -0.0377199 0)
(2.62617 -0.0613596 0)
(2.68336 -0.0186103 0)
(2.67563 -0.0442882 0)
(2.44204 -0.425593 0)
(2.31944 -0.639764 0)
(2.39993 -0.673906 0)
(2.44728 -0.647155 0)
(2.52896 -0.59691 0)
(2.6089 -0.568101 0)
(2.67799 -0.551522 0)
(2.74067 -0.531886 0)
(2.80588 -0.493775 0)
(2.85971 -0.41309 0)
(2.87169 -0.257466 0)
(2.88282 0.0242222 0)
(1.72769 0.805647 0)
(2.01095 0.658511 0)
(2.28623 0.431556 0)
(2.43721 0.275876 0)
(2.57481 0.0303695 0)
(2.64942 0.00655149 0)
(2.68218 -0.0421355 0)
(2.62441 -0.201516 0)
(2.34849 -0.580556 0)
(2.3594 -0.702375 0)
(2.39869 -0.693117 0)
(2.47602 -0.639789 0)
(2.55389 -0.583361 0)
(2.62847 -0.548365 0)
(2.69453 -0.521087 0)
(2.76334 -0.497958 0)
(2.82011 -0.471109 0)
(2.88024 -0.429281 0)
(2.92122 -0.376984 0)
(2.95714 -0.187924 0)
(1.72764 0.841133 0)
(1.99122 0.67787 0)
(2.22064 0.523848 0)
(2.39372 0.313143 0)
(2.54165 0.145 0)
(2.621 0.099167 0)
(2.62567 -0.0563858 0)
(2.47729 -0.443814 0)
(2.32054 -0.681695 0)
(2.38043 -0.723842 0)
(2.42626 -0.698583 0)
(2.51138 -0.636964 0)
(2.58122 -0.576428 0)
(2.65344 -0.521325 0)
(2.72109 -0.494109 0)
(2.78824 -0.466065 0)
(2.84645 -0.440706 0)
(2.8975 -0.392254 0)
(2.92943 -0.38636 0)
(3.0109 -0.302293 0)
(1.73637 0.87262 0)
(1.97799 0.707194 0)
(2.18067 0.581728 0)
(2.35584 0.367496 0)
(2.51016 0.279785 0)
(2.6103 0.0980883 0)
(2.54503 -0.140821 0)
(2.30209 -0.652053 0)
(2.30382 -0.748523 0)
(2.37153 -0.7298 0)
(2.45585 -0.689134 0)
(2.54509 -0.62334 0)
(2.60467 -0.565404 0)
(2.68572 -0.500558 0)
(2.74954 -0.465652 0)
(2.81205 -0.431612 0)
(2.86645 -0.398435 0)
(2.91707 -0.359372 0)
(2.95251 -0.356873 0)
(3.02904 -0.298404 0)
(1.7437 0.898639 0)
(1.9752 0.735866 0)
(2.15048 0.625083 0)
(2.32761 0.427355 0)
(2.45852 0.40612 0)
(2.56113 0.141726 0)
(2.42226 -0.320043 0)
(2.27987 -0.656168 0)
(2.29512 -0.724481 0)
(2.39313 -0.721033 0)
(2.47859 -0.677844 0)
(2.56354 -0.609051 0)
(2.61766 -0.554268 0)
(2.70903 -0.479067 0)
(2.76652 -0.437178 0)
(2.82625 -0.406261 0)
(2.88924 -0.361043 0)
(2.93228 -0.32414 0)
(2.97158 -0.321544 0)
(3.04386 -0.273847 0)
(1.77065 0.918596 0)
(1.96043 0.782636 0)
(2.13012 0.659867 0)
(2.3228 0.504391 0)
(2.44024 0.484315 0)
(2.42618 0.0935359 0)
(2.30167 -0.459085 0)
(2.22517 -0.692576 0)
(2.30433 -0.694669 0)
(2.41392 -0.663269 0)
(2.50644 -0.627036 0)
(2.58815 -0.578761 0)
(2.65834 -0.526884 0)
(2.74055 -0.45161 0)
(2.79422 -0.417382 0)
(2.8499 -0.386772 0)
(2.90805 -0.331464 0)
(2.94882 -0.307742 0)
(2.98993 -0.302797 0)
(3.05856 -0.25281 0)
(1.83247 0.885252 0)
(1.94228 0.83658 0)
(2.13923 0.686615 0)
(2.30084 0.625102 0)
(2.41251 0.453636 0)
(2.3076 -0.0693476 0)
(2.18681 -0.502711 0)
(2.22421 -0.582402 0)
(2.32614 -0.60797 0)
(2.44494 -0.59987 0)
(2.54373 -0.583528 0)
(2.62486 -0.54783 0)
(2.7002 -0.497562 0)
(2.77445 -0.43598 0)
(2.83583 -0.405372 0)
(2.88532 -0.371187 0)
(2.93568 -0.308093 0)
(2.9742 -0.288655 0)
(3.00994 -0.282985 0)
(3.07376 -0.223872 0)
(1.91905 0.8276 0)
(1.93958 0.857886 0)
(2.11658 0.768287 0)
(2.28516 0.739416 0)
(2.30978 0.380468 0)
(2.18604 -0.217376 0)
(2.12853 -0.510194 0)
(2.22642 -0.530658 0)
(2.35751 -0.531641 0)
(2.46565 -0.507209 0)
(2.55513 -0.496669 0)
(2.63243 -0.476652 0)
(2.71036 -0.437586 0)
(2.78511 -0.409037 0)
(2.85335 -0.391506 0)
(2.91142 -0.352578 0)
(2.95963 -0.299979 0)
(2.99911 -0.283616 0)
(3.02928 -0.271921 0)
(3.08535 -0.202705 0)
(2.05291 0.737384 0)
(1.93817 0.881284 0)
(2.05891 0.820044 0)
(2.23707 0.72699 0)
(2.14805 0.170863 0)
(2.06685 -0.290141 0)
(2.1193 -0.400389 0)
(2.23882 -0.425265 0)
(2.37237 -0.428543 0)
(2.49097 -0.428593 0)
(2.59027 -0.439518 0)
(2.67023 -0.430684 0)
(2.73846 -0.40184 0)
(2.80453 -0.376956 0)
(2.87398 -0.358324 0)
(2.93222 -0.324251 0)
(2.97356 -0.28664 0)
(3.0169 -0.265927 0)
(3.0424 -0.258868 0)
(3.09219 -0.189889 0)
(2.47186 0.623434 0)
(1.96958 0.879384 0)
(2.03157 0.858203 0)
(2.13651 0.622001 0)
(2.00808 0.00486441 0)
(2.01292 -0.311595 0)
(2.13234 -0.345621 0)
(2.27966 -0.363466 0)
(2.40838 -0.351897 0)
(2.51633 -0.336073 0)
(2.60875 -0.339794 0)
(2.68974 -0.339649 0)
(2.76083 -0.343117 0)
(2.83298 -0.338998 0)
(2.89478 -0.324864 0)
(2.95118 -0.293206 0)
(2.99876 -0.249022 0)
(3.03907 -0.223877 0)
(3.06531 -0.210886 0)
(3.11044 -0.145584 0)
(3.01875 0.318895 0)
(2.0794 0.873976 0)
(2.04914 0.849464 0)
(1.93962 0.336882 0)
(1.91581 -0.13372 0)
(2.01082 -0.255491 0)
(2.15752 -0.265431 0)
(2.30291 -0.274832 0)
(2.43959 -0.274296 0)
(2.56021 -0.278237 0)
(2.65982 -0.2895 0)
(2.73839 -0.290633 0)
(2.79937 -0.286049 0)
(2.84418 -0.270425 0)
(2.88525 -0.27198 0)
(2.93436 -0.249231 0)
(2.98053 -0.223689 0)
(3.02384 -0.198819 0)
(3.05189 -0.201268 0)
(3.09876 -0.131537 0)
(3.17609 0.0328292 0)
(2.2837 0.851975 0)
(2.14252 0.851502 0)
(1.82096 0.193714 0)
(1.91424 -0.119801 0)
(2.05144 -0.175266 0)
(2.208 -0.202368 0)
(2.34149 -0.210128 0)
(2.46715 -0.200313 0)
(2.57728 -0.18703 0)
(2.66853 -0.186252 0)
(2.73803 -0.18588 0)
(2.79758 -0.192875 0)
(2.85427 -0.195823 0)
(2.89836 -0.198901 0)
(2.93827 -0.175524 0)
(2.97934 -0.161961 0)
(3.0237 -0.140472 0)
(3.05626 -0.143722 0)
(3.09371 -0.106201 0)
(3.02604 -0.000335644 0)
(2.48191 0.696431 0)
(2.2277 0.503496 0)
(1.80388 -0.0442152 0)
(1.91719 -0.151932 0)
(2.10136 -0.134688 0)
(2.26188 -0.130938 0)
(2.38436 -0.1326 0)
(2.49321 -0.120009 0)
(2.60506 -0.113533 0)
(2.70059 -0.11534 0)
(2.76895 -0.115472 0)
(2.82239 -0.120846 0)
(2.86927 -0.121127 0)
(2.91196 -0.125816 0)
(2.95243 -0.110523 0)
(2.9959 -0.105824 0)
(3.03909 -0.0873537 0)
(3.07018 -0.0920731 0)
(3.11743 -0.0520661 0)
(3.00048 -2.04814e-06 0)
(2.62307 0.271023 0)
(2.3907 0.360036 0)
(1.8353 0.0920595 0)
(1.96698 -0.023957 0)
(2.14382 -0.042354 0)
(2.28591 -0.0421563 0)
(2.39857 -0.0364185 0)
(2.4927 -0.0451427 0)
(2.58624 -0.048403 0)
(2.67359 -0.0528433 0)
(2.73941 -0.0545151 0)
(2.78901 -0.0630191 0)
(2.83002 -0.0630559 0)
(2.87015 -0.0670605 0)
(2.91491 -0.0576272 0)
(2.96439 -0.0627509 0)
(3.01096 -0.0531058 0)
(3.04366 -0.0561191 0)
(3.10145 -0.0427529 0)
)
;

boundaryField
{
    inlet
    {
        type            fixedValue;
        value           uniform (3 0 0);
    }
    outlet
    {
        type            inletOutlet;
        inletValue      uniform (3 0 0);
        value           nonuniform List<vector> 
20
(
(2.68887 0.037094 0)
(2.7168 0.074113 0)
(2.74272 0.0991289 0)
(2.75448 0.184101 0)
(2.78187 0.17411 0)
(2.81013 0.171434 0)
(2.88282 0.0242222 0)
(2.95714 -0.187924 0)
(3.0109 -0.302293 0)
(3.02904 -0.298404 0)
(3.04386 -0.273847 0)
(3.05856 -0.25281 0)
(3.07376 -0.223872 0)
(3.08535 -0.202705 0)
(3.09219 -0.189889 0)
(3.11044 -0.145584 0)
(3.09876 -0.131537 0)
(3.09371 -0.106201 0)
(3.11743 -0.0520661 0)
(3.10145 -0.0427529 0)
)
;
    }
    bottom
    {
        type            symmetryPlane;
    }
    top
    {
        type            symmetryPlane;
    }
    obstacle
    {
        type            slip;
    }
    defaultFaces
    {
        type            empty;
    }
}


// ************************************************************************* //
