/*--------------------------------*- C++ -*----------------------------------*\
  =========                 |
  \\      /  F ield         | OpenFOAM: The Open Source CFD Toolbox
   \\    /   O peration     | Website:  https://openfoam.org
    \\  /    A nd           | Version:  6.0
     \\/     M anipulation  |
\*---------------------------------------------------------------------------*/
FoamFile
{
    version     2.0;
    format      ascii;
    class       volScalarField;
    location    "3.5";
    object      p;
}
// * * * * * * * * * * * * * * * * * * * * * * * * * * * * * * * * * * * * * //

dimensions      [1 -1 -2 0 0 0 0];

internalField   nonuniform List<scalar> 
1200
(
1
1
1
1
1
1
1
1
1
1
5.11079
10.4522
10.7652
10.9791
11.2069
11.4084
11.5916
11.7424
11.8609
11.9511
1
1
1
1
1
1
1
1
1
1
5.08991
10.4403
10.7619
10.975
11.2023
11.4027
11.5847
11.7341
11.8509
11.9402
1
1
1
1
1
1
1
1
1
1
5.0448
10.4238
10.7535
10.9664
11.1934
11.393
11.5736
11.7213
11.8353
11.9236
1
1
1
1
1
1
1
1
1
1
4.97624
10.401
10.7421
10.9537
11.18
11.3781
11.5568
11.7024
11.8125
11.898
1
1
1
1
1
1
1
1
1
1
4.88555
10.37
10.7271
10.9369
11.162
11.3582
11.5344
11.6772
11.7828
11.8669
1
1
1
1
1
1
1
1
1
1
4.77388
10.3292
10.7082
10.9156
11.1391
11.333
11.5065
11.6465
11.747
11.8277
1
1
1
1
1
1
1
1
1
1
4.64195
10.2776
10.6855
10.89
11.1112
11.3018
11.4716
11.6078
11.7031
11.7829
1
1
1
1
1
1
1
1
1
1
4.4902
10.2144
10.6593
10.8603
11.0782
11.2649
11.4306
11.563
11.6531
11.7286
1
1
1
1
1
1
1
1
1
1
4.31915
10.1386
10.6298
10.8268
11.0403
11.2221
11.3819
11.5084
11.5928
11.668
1
1
1
1
1
1
1
1
1
1
4.12959
10.0488
10.5973
10.7899
10.9977
11.1731
11.3264
11.4473
11.5255
11.594
1
1
1
1
1
1
1
1
1
1
3.92277
9.94264
10.5621
10.75
10.9512
11.1192
11.2631
11.3742
11.444
11.512
1
1
1
1
1
1
1
1
1
1
3.70022
9.81823
10.5242
10.7065
10.8993
11.0584
11.1927
11.2948
11.3546
11.4109
1
1
1
1
1
1
1
1
1
1
3.46392
9.6743
10.4855
10.6617
10.8448
10.9932
11.1132
11.1992
11.2442
11.2982
1
1
1
1
1
1
1
1
1
1
3.2145
9.50654
10.4447
10.613
10.7848
10.9212
11.0266
11.0983
11.1237
11.1556
1
1
1
1
1
1
1
1
1
1
2.95656
9.3121
10.4059
10.5655
10.7247
10.8463
10.9305
10.9764
10.9704
10.9929
1
1
1
1
1
1
1
1
1
1
2.69017
9.08109
10.3641
10.5129
10.6592
10.7657
10.8285
10.8504
10.8037
10.7796
1
1
1
1
1
1
1
1
1
1
2.42527
8.81572
10.3217
10.4529
10.5854
10.6773
10.7175
10.6999
10.5826
10.5182
1
1
1
1
1
1
1
1
1
1
2.15463
8.52776
10.2967
10.405
10.5176
10.5881
10.6006
10.5408
10.3491
10.1622
1
1
1
1
1
1
1
1
1
1
1.84736
8.21199
10.2729
10.3515
10.4487
10.5006
10.477
10.3594
10.044
9.65433
1
1
1
1
1
1
1
1
1
1
1.52559
7.94038
10.2506
10.2973
10.3798
10.4153
10.3542
10.172
9.78956
9.23479
1
1
1
1
1
1
1
1
1
1
1.05761
6.63202
10.0207
10.1239
10.1675
10.1474
10.005
9.67913
9.06717
7.25678
1
1
1
1
1
1
1
1
1
1
1.00025
4.26684
9.48007
9.83813
9.75967
9.65659
9.40784
8.91563
8.21928
6.62438
1
1
1
1
1
1
1
1
1
1
1
1.92754
8.06866
9.55683
9.41078
9.23736
8.91957
8.4141
7.62717
6.25876
1
1
1
1
1
1
1
1
1
1
1
1.05257
5.49648
9.12614
9.03121
8.85256
8.48392
8.00897
7.19526
6.1795
1
1
1
1
1
1
1
1
1
1
1
1.00008
2.19169
7.83506
8.80994
8.53302
8.17963
7.69736
6.99985
6.18774
1
1
1
1
1
1
1
1
1
1
1
1
1.07262
4.99799
8.42595
8.27132
7.9217
7.47115
6.88
6.21322
1
1
1
1
1
1
1
1
1
1
1
1
1.00027
1.69696
6.60498
8.14258
7.73574
7.34049
6.80175
6.24243
1
1
1
1
1
1
1
1
1
1
1
1
1
1.02483
3.10198
7.32198
7.65271
7.24752
6.75306
6.27399
1
1
1
1
1
1
1
1
1
1
1
1
1
1.0001
1.20709
4.55832
7.44741
7.19947
6.75887
6.3363
1
1
1
1
1
1
1
1
1
1
1
1
1
1
1.00284
1.62209
5.3527
7.08581
6.76308
6.36256
1
1
1
1
1
1
1
1
1
1
1
1
1
1
1.00001
1.02058
2.09233
5.64213
6.74811
6.42056
1
1
1
1
1
1
1
1
1
1
1
1
1
1
1
1.00011
1.06052
2.48979
5.6565
6.40071
1
1
1
1
1
1
1
1
1
1
1
1
1
1
1
1
1.00054
1.11396
2.71913
5.61113
1
1
1
1
1
1
1
1
1
1
1
1
1
1
1
1
1
1.00154
1.15595
3.16028
1
1
1
1
1
1
1
1
1
1
1
1
1
1
1
1
1
1
1.0022
1.2762
1
1
1
1
1
1
1
1
1
1
1
1
1
1
1
1
1
1
1.00001
1.00506
1
1
1
1
1
1
1
1
1
1
1
1
1
1
1
1
1
1
1
1
1
1
1
1
1
1
1
1
1
1
1
1
1
1
1
1
1
1
1
1
1
1
1
1
1
1
1
1
1
1
1
1
1
1
1
1
1
1
1
1
1
1
1
1
1
1
1
1
1
1
1
1
1
1
1
1
1
1
1
1
1.34874
0.659346
0.919276
1.29123
1.30439
1.57286
4.06916
5.5221
5.46558
5.23088
4.89394
4.52335
4.18156
3.87072
3.59275
3.33319
3.08177
2.84319
2.64343
2.35081
2.89456
1.01392
1.06042
1.18974
1.21234
1.47708
4.06782
5.61247
5.44285
5.16161
4.82778
4.48904
4.16418
3.85676
3.57789
3.31763
3.06889
2.83805
2.64491
2.35463
3.48486
1.40562
1.15802
1.10797
1.1803
1.42977
4.07501
5.70089
5.43695
5.1795
4.8375
4.48081
4.15466
3.84949
3.57036
3.30944
3.06642
2.83951
2.64817
2.35668
3.90375
1.9705
1.39686
1.09739
1.12431
1.42666
3.77266
5.94427
5.43446
5.07352
4.761
4.44557
4.13147
3.82856
3.54991
3.29432
3.05194
2.82579
2.63846
2.34975
4.23153
2.4358
1.66752
1.11983
1.13796
1.57341
3.20482
5.61748
5.49192
5.0437
4.70902
4.40458
4.10525
3.81518
3.53813
3.28017
3.03519
2.8109
2.62751
2.34104
4.45231
2.86504
1.98399
1.24493
1.26819
1.9324
2.83031
4.96424
5.36438
4.99921
4.6762
4.37275
4.07466
3.78713
3.50988
3.25503
3.01347
2.79563
2.6145
2.32975
4.61816
3.24844
2.256
1.43722
1.4659
2.42709
2.76048
3.94673
5.06741
4.93915
4.62284
4.3349
4.04109
3.75385
3.4796
3.22962
2.99153
2.77906
2.59572
2.31181
4.77397
3.57248
2.48133
1.67668
1.86846
3.056
2.94426
3.08433
4.36468
4.80622
4.5622
4.28899
3.995
3.71053
3.44009
3.19571
2.96408
2.75952
2.57243
2.29388
4.9361
3.8455
2.66065
1.9319
2.55146
3.49436
3.19158
2.93679
3.46605
4.39977
4.5073
4.22595
3.93935
3.66299
3.40027
3.16273
2.9385
2.73968
2.54684
2.27862
5.09811
4.03986
2.8092
2.29313
3.46803
3.809
3.43856
2.95134
2.84073
3.65996
4.26152
4.12189
3.86664
3.60137
3.3501
3.1218
2.90645
2.71239
2.51138
2.26876
5.30097
4.16446
2.97672
2.95534
4.35364
4.08369
3.60258
3.05312
2.73448
2.92882
3.75388
3.98502
3.78328
3.54451
3.30686
3.0812
2.87276
2.66841
2.46647
2.26976
5.49699
4.23293
3.23077
4.0109
5.08887
4.42006
3.75716
3.18091
2.71227
2.54876
3.03329
3.69488
3.68685
3.50716
3.27485
3.04892
2.85219
2.62367
2.4432
2.29962
5.64853
4.3469
3.62449
5.37156
5.52194
4.72829
3.91962
3.30807
2.77188
2.47407
2.49969
3.1052
3.49021
3.38661
3.18694
2.96917
2.77011
2.5509
2.41845
2.42354
5.48034
4.55567
4.43115
6.68727
5.90399
4.92696
4.05997
3.41975
2.87994
2.45353
2.26441
2.49692
3.15923
3.27291
3.11263
2.90717
2.70615
2.51169
2.42027
2.66093
4.87862
4.63424
5.8645
7.65355
6.22899
5.0931
4.1955
3.51698
2.97958
2.4998
2.21219
2.1204
2.58734
3.07119
3.02534
2.84761
2.63937
2.49994
2.51215
3.0049
3.84896
4.54156
7.80142
8.25301
6.50639
5.24094
4.30598
3.59491
3.05789
2.58092
2.18031
1.98924
2.11769
2.64569
2.8409
2.74555
2.6035
2.56125
2.79088
3.38906
2.58689
5.06799
9.31023
8.54989
6.698
5.36876
4.40645
3.67135
3.11448
2.65106
2.22073
1.94251
1.86273
2.11957
2.60364
2.63473
2.60569
2.7297
3.25753
3.60087
1.91031
5.7228
11.0018
8.83034
6.86591
5.4791
4.48869
3.73199
3.14867
2.68955
2.27221
1.91935
1.74783
1.7397
2.17057
2.4331
2.66168
3.1756
3.80239
3.75827
1.37608
6.28273
12.1405
8.93869
6.92878
5.54122
4.53858
3.77222
3.169
2.70358
2.31819
1.96297
1.68633
1.56725
1.78368
2.33666
2.99159
3.62297
3.96165
3.83236
1.1132
6.81268
13.1551
9.18481
6.94927
5.55437
4.55994
3.79631
3.1825
2.70429
2.33854
2.00538
1.63818
1.47616
1.55702
2.23701
3.31656
4.06815
4.14772
3.90203
)
;

boundaryField
{
    inlet
    {
        type            fixedValue;
        value           uniform 1;
    }
    outlet
    {
        type            zeroGradient;
    }
    bottom
    {
        type            symmetryPlane;
    }
    top
    {
        type            symmetryPlane;
    }
    obstacle
    {
        type            zeroGradient;
    }
    defaultFaces
    {
        type            empty;
    }
}


// ************************************************************************* //
