/*--------------------------------*- C++ -*----------------------------------*\
  =========                 |
  \\      /  F ield         | OpenFOAM: The Open Source CFD Toolbox
   \\    /   O peration     | Website:  https://openfoam.org
    \\  /    A nd           | Version:  6.0
     \\/     M anipulation  |
\*---------------------------------------------------------------------------*/
FoamFile
{
    version     2.0;
    format      ascii;
    class       volScalarField;
    location    "3.5";
    object      rho;
}
// * * * * * * * * * * * * * * * * * * * * * * * * * * * * * * * * * * * * * //

dimensions      [1 -3 0 0 0 0 0];

internalField   nonuniform List<scalar> 
1200
(
1.39997
1.39997
1.39997
1.39997
1.39997
1.39997
1.39997
1.39997
1.39997
1.39997
3.40152
5.39271
5.50797
5.58537
5.66552
5.73356
5.79503
5.84804
5.89271
5.92686
1.39997
1.39997
1.39997
1.39997
1.39997
1.39997
1.39997
1.39997
1.39997
1.39997
3.39024
5.38684
5.50643
5.58379
5.66377
5.73144
5.79251
5.84511
5.88919
5.92302
1.39997
1.39997
1.39997
1.39997
1.39997
1.39997
1.39997
1.39997
1.39997
1.39997
3.36879
5.37818
5.50253
5.58024
5.6603
5.72774
5.78841
5.84054
5.88374
5.9172
1.39997
1.39997
1.39997
1.39997
1.39997
1.39997
1.39997
1.39997
1.39997
1.39997
3.3391
5.36835
5.49741
5.57493
5.65494
5.72201
5.78218
5.83376
5.8757
5.90822
1.39997
1.39997
1.39997
1.39997
1.39997
1.39997
1.39997
1.39997
1.39997
1.39997
3.301
5.35803
5.49138
5.56808
5.6478
5.71434
5.7738
5.82463
5.86518
5.89728
1.39997
1.39997
1.39997
1.39997
1.39997
1.39997
1.39997
1.39997
1.39997
1.39997
3.25377
5.34616
5.48475
5.5599
5.63889
5.70467
5.76336
5.81346
5.85244
5.88342
1.39997
1.39997
1.39997
1.39997
1.39997
1.39997
1.39997
1.39997
1.39997
1.39997
3.19702
5.33109
5.47764
5.55077
5.62846
5.69299
5.75041
5.79936
5.83674
5.86749
1.39997
1.39997
1.39997
1.39997
1.39997
1.39997
1.39997
1.39997
1.39997
1.39997
3.13077
5.31169
5.46993
5.54086
5.61673
5.67946
5.73529
5.78302
5.81877
5.84814
1.39997
1.39997
1.39997
1.39997
1.39997
1.39997
1.39997
1.39997
1.39997
1.39997
3.05533
5.28751
5.46147
5.53019
5.60382
5.66416
5.71753
5.76316
5.79704
5.82645
1.39997
1.39997
1.39997
1.39997
1.39997
1.39997
1.39997
1.39997
1.39997
1.39997
2.97108
5.25834
5.45224
5.51872
5.58967
5.64705
5.69753
5.74095
5.77273
5.79989
1.39997
1.39997
1.39997
1.39997
1.39997
1.39997
1.39997
1.39997
1.39997
1.39997
2.87837
5.22371
5.44224
5.50649
5.57458
5.62857
5.67491
5.71446
5.74331
5.77039
1.39997
1.39997
1.39997
1.39997
1.39997
1.39997
1.39997
1.39997
1.39997
1.39997
2.77746
5.18324
5.43168
5.49323
5.55781
5.60789
5.64983
5.68567
5.71101
5.73397
1.39997
1.39997
1.39997
1.39997
1.39997
1.39997
1.39997
1.39997
1.39997
1.39997
2.66926
5.13713
5.4215
5.47979
5.54038
5.58586
5.62163
5.65111
5.67116
5.69339
1.39997
1.39997
1.39997
1.39997
1.39997
1.39997
1.39997
1.39997
1.39997
1.39997
2.55414
5.08437
5.41143
5.46527
5.52113
5.5616
5.59109
5.61475
5.6276
5.64175
1.39997
1.39997
1.39997
1.39997
1.39997
1.39997
1.39997
1.39997
1.39997
1.39997
2.4337
5.02334
5.40288
5.45141
5.50189
5.53644
5.55773
5.5713
5.57156
5.58201
1.39997
1.39997
1.39997
1.39997
1.39997
1.39997
1.39997
1.39997
1.39997
1.39997
2.30549
4.94793
5.39384
5.43577
5.48071
5.50925
5.52227
5.52625
5.51029
5.50338
1.39997
1.39997
1.39997
1.39997
1.39997
1.39997
1.39997
1.39997
1.39997
1.39997
2.17494
4.85931
5.38661
5.41786
5.45635
5.47892
5.48358
5.47282
5.42902
5.40719
1.39997
1.39997
1.39997
1.39997
1.39997
1.39997
1.39997
1.39997
1.39997
1.39997
2.04319
4.77076
5.39052
5.4058
5.43405
5.44801
5.44281
5.41614
5.34442
5.28023
1.39997
1.39997
1.39997
1.39997
1.39997
1.39997
1.39997
1.39997
1.39997
1.39997
1.89887
4.68895
5.40083
5.39469
5.41169
5.41735
5.39993
5.35028
5.23217
5.09493
1.39997
1.39997
1.39997
1.39997
1.39997
1.39997
1.39997
1.39997
1.39997
1.39997
1.74193
4.62592
5.41366
5.38664
5.39105
5.38767
5.35707
5.28115
5.12833
4.89245
1.39997
1.39997
1.39997
1.39997
1.39997
1.39997
1.39997
1.39997
1.39997
1.39997
1.44655
4.10238
5.35834
5.34637
5.33358
5.30529
5.23929
5.10369
4.84146
3.97979
1.39997
1.39997
1.39997
1.39997
1.39997
1.39997
1.39997
1.39997
1.39997
1.39997
1.4002
3.08742
5.19215
5.26986
5.22369
5.16149
5.04423
4.83228
4.52863
3.80722
1.39997
1.39997
1.39997
1.39997
1.39997
1.39997
1.39997
1.39997
1.39997
1.39997
1.39997
1.97231
4.74885
5.2084
5.13641
5.04602
4.89561
4.67026
4.32624
3.72096
1.39997
1.39997
1.39997
1.39997
1.39997
1.39997
1.39997
1.39997
1.39997
1.39997
1.39997
1.44125
3.65582
5.07076
5.0232
4.93539
4.76569
4.55
4.19004
3.73545
1.39997
1.39997
1.39997
1.39997
1.39997
1.39997
1.39997
1.39997
1.39997
1.39997
1.39997
1.40001
2.13254
4.69891
4.97527
4.84844
4.68395
4.46339
4.15015
3.77874
1.39997
1.39997
1.39997
1.39997
1.39997
1.39997
1.39997
1.39997
1.39997
1.39997
1.39997
1.39997
1.45728
3.48599
4.85855
4.77953
4.61567
4.40713
4.13733
3.82784
1.39997
1.39997
1.39997
1.39997
1.39997
1.39997
1.39997
1.39997
1.39997
1.39997
1.39997
1.39997
1.40019
1.86413
4.24326
4.78043
4.59058
4.39972
4.14582
3.87988
1.39997
1.39997
1.39997
1.39997
1.39997
1.39997
1.39997
1.39997
1.39997
1.39997
1.39997
1.39997
1.39997
1.42019
2.65064
4.59421
4.59586
4.40766
4.171
3.9371
1.39997
1.39997
1.39997
1.39997
1.39997
1.39997
1.39997
1.39997
1.39997
1.39997
1.39997
1.39997
1.39997
1.40006
1.55736
3.40437
4.58772
4.45425
4.23026
4.01539
1.39997
1.39997
1.39997
1.39997
1.39997
1.39997
1.39997
1.39997
1.39997
1.39997
1.39997
1.39997
1.39997
1.39997
1.40243
1.83647
3.78899
4.46877
4.30097
4.0901
1.39997
1.39997
1.39997
1.39997
1.39997
1.39997
1.39997
1.39997
1.39997
1.39997
1.39997
1.39997
1.39997
1.39997
1.39998
1.41728
2.13151
3.95825
4.36209
4.18878
1.39997
1.39997
1.39997
1.39997
1.39997
1.39997
1.39997
1.39997
1.39997
1.39997
1.39997
1.39997
1.39997
1.39997
1.39997
1.40008
1.45
2.3749
3.99472
4.24208
1.39997
1.39997
1.39997
1.39997
1.39997
1.39997
1.39997
1.39997
1.39997
1.39997
1.39997
1.39997
1.39997
1.39997
1.39997
1.39997
1.40048
1.49222
2.52636
3.97128
1.39997
1.39997
1.39997
1.39997
1.39997
1.39997
1.39997
1.39997
1.39997
1.39997
1.39997
1.39997
1.39997
1.39997
1.39997
1.39997
1.39997
1.40139
1.52543
2.72924
1.39997
1.39997
1.39997
1.39997
1.39997
1.39997
1.39997
1.39997
1.39997
1.39997
1.39997
1.39997
1.39997
1.39997
1.39997
1.39997
1.39997
1.39997
1.40196
1.60812
1.39997
1.39997
1.39997
1.39997
1.39997
1.39997
1.39997
1.39997
1.39997
1.39997
1.39997
1.39997
1.39997
1.39997
1.39997
1.39997
1.39997
1.39997
1.39998
1.40433
1.39997
1.39997
1.39997
1.39997
1.39997
1.39997
1.39997
1.39997
1.39997
1.39997
1.39997
1.39997
1.39997
1.39997
1.39997
1.39997
1.39997
1.39997
1.39997
1.39997
1.39997
1.39997
1.39997
1.39997
1.39997
1.39997
1.39997
1.39997
1.39997
1.39997
1.39997
1.39997
1.39997
1.39997
1.39997
1.39997
1.39997
1.39997
1.39997
1.39997
1.39997
1.39997
1.39997
1.39997
1.39997
1.39997
1.39997
1.39997
1.39997
1.39997
1.39997
1.39997
1.39997
1.39997
1.39997
1.39997
1.39997
1.39997
1.39997
1.39997
1.39997
1.39997
1.39997
1.39997
1.39997
1.39997
1.39997
1.39997
1.39997
1.39997
1.39997
1.39997
1.39997
1.39997
1.39997
1.39997
1.39997
1.39997
1.39997
1.39997
1.07254
0.584682
0.748316
0.97093
0.989851
1.11002
2.14381
2.73199
2.73831
2.68604
2.58946
2.47267
2.36174
2.25726
2.15759
2.05595
1.94913
1.84163
1.74856
1.61024
1.96067
0.846506
0.880431
0.960152
0.974464
1.10794
2.20531
2.83505
2.79563
2.71737
2.6112
2.49659
2.38411
2.27508
2.17094
2.066
1.95779
1.85149
1.75958
1.61961
2.38652
1.16874
1.0101
0.982547
1.02485
1.17346
2.36708
3.0495
2.95986
2.86971
2.73814
2.5953
2.4638
2.34113
2.22618
2.11293
2.00061
1.88996
1.79359
1.64504
2.66282
1.58904
1.22529
1.02823
1.04595
1.23767
2.43835
3.34164
3.14573
2.99542
2.85856
2.71594
2.57227
2.43425
2.3059
2.18427
2.06318
1.94458
1.84298
1.68447
2.86313
1.90528
1.44082
1.07265
1.08471
1.36172
2.27488
3.35039
3.29552
3.10142
2.95292
2.81169
2.66814
2.527
2.38994
2.25872
2.12907
2.00498
1.89993
1.7329
2.99784
2.17094
1.66023
1.17575
1.19143
1.59163
2.10262
3.13182
3.31052
3.15099
3.00884
2.86989
2.72723
2.58521
2.4443
2.31049
2.17884
2.05511
1.94903
1.77783
3.10569
2.39695
1.8369
1.31794
1.33606
1.8746
2.06987
2.68298
3.22432
3.1701
3.02997
2.89814
2.75766
2.61521
2.47447
2.34158
2.21042
2.08891
1.9815
1.80939
3.21129
2.58595
1.9805
1.48225
1.59334
2.23267
2.18911
2.28428
2.93374
3.15494
3.04132
2.91329
2.77046
2.62702
2.48622
2.35481
2.22618
2.1087
1.99942
1.83032
3.32411
2.7496
2.09797
1.65098
1.97982
2.48625
2.34574
2.24132
2.5334
3.00781
3.0585
2.92074
2.77655
2.63282
2.49254
2.36252
2.23644
2.12123
2.00796
1.84476
3.4446
2.87966
2.20146
1.8801
2.46506
2.67869
2.51042
2.27172
2.24249
2.67697
2.98196
2.90888
2.77501
2.63149
2.49246
2.36435
2.24076
2.12657
2.00677
1.85776
3.5962
2.97848
2.31551
2.2775
2.95606
2.84805
2.63297
2.36025
2.20443
2.31768
2.762
2.87693
2.76562
2.63116
2.49603
2.36637
2.2437
2.12145
1.99901
1.87546
3.75401
3.05599
2.47669
2.84389
3.37027
3.06394
2.74884
2.45813
2.20286
2.12262
2.40073
2.76285
2.74184
2.63876
2.50589
2.37355
2.25456
2.11495
2.00437
1.90919
3.89746
3.17306
2.72391
3.51853
3.62864
3.26033
2.86328
2.54871
2.25504
2.09139
2.11417
2.46577
2.66421
2.60163
2.48406
2.35345
2.23003
2.09246
2.00988
1.99916
3.85297
3.34485
3.20878
4.18791
3.84245
3.38679
2.95846
2.62747
2.33493
2.08901
1.98775
2.13083
2.51031
2.56203
2.46668
2.34034
2.21282
2.09173
2.02716
2.15498
3.54287
3.40256
3.95602
4.67121
4.02395
3.49
3.04919
2.69873
2.4096
2.13314
1.96749
1.91601
2.2011
2.47616
2.44184
2.32698
2.19437
2.10394
2.10185
2.36599
2.95458
3.33774
4.79402
4.93413
4.17241
3.58633
3.12946
2.76309
2.47364
2.20224
1.95833
1.84336
1.92752
2.25295
2.35521
2.2897
2.1982
2.15721
2.28743
2.61215
2.28284
3.58628
5.36392
5.07556
4.29307
3.68367
3.21275
2.83239
2.5287
2.26305
1.99807
1.82169
1.77367
1.9397
2.23542
2.23923
2.2168
2.28369
2.57367
2.77111
2.0294
4.02254
6.12938
5.27384
4.4295
3.78572
3.29364
2.8948
2.57028
2.30149
2.04459
1.8134
1.70218
1.69289
1.97591
2.13475
2.26812
2.56922
2.90792
2.89293
1.73285
4.45925
6.77766
5.4383
4.53022
3.86231
3.35057
2.93772
2.59581
2.31917
2.08081
1.84825
1.66077
1.57681
1.72767
2.08604
2.48549
2.83837
3.03371
2.96383
1.51205
4.75331
7.27545
5.60511
4.5753
3.8895
3.37416
2.95857
2.60815
2.32246
2.09519
1.87925
1.62725
1.51219
1.57073
2.02578
2.6858
3.08362
3.14914
3.0152
)
;

boundaryField
{
    inlet
    {
        type            calculated;
        value           uniform 1.39997;
    }
    outlet
    {
        type            calculated;
        value           nonuniform List<scalar> 
20
(
1.61027
1.61964
1.64503
1.68444
1.73287
1.7778
1.80937
1.83029
1.84475
1.85778
1.87547
1.90935
1.9994
2.15547
2.36652
2.61251
2.77126
2.89296
2.96387
3.01518
)
;
    }
    bottom
    {
        type            symmetryPlane;
    }
    top
    {
        type            symmetryPlane;
    }
    obstacle
    {
        type            calculated;
        value           nonuniform List<scalar> 
40
(
5.92686
5.92302
5.9172
5.90822
5.89728
5.88342
5.86749
5.84814
5.82645
5.79989
5.77039
5.73397
5.69339
5.64175
5.58201
5.50338
5.40719
5.28023
5.09493
4.89245
1.07254
0.584682
0.748316
0.97093
0.989851
1.11002
2.14381
2.73199
2.73831
2.68604
2.58946
2.47267
2.36174
2.25726
2.15759
2.05595
1.94913
1.84163
1.74856
1.61024
)
;
    }
    defaultFaces
    {
        type            empty;
    }
}


// ************************************************************************* //
