/*--------------------------------*- C++ -*----------------------------------*\
  =========                 |
  \\      /  F ield         | OpenFOAM: The Open Source CFD Toolbox
   \\    /   O peration     | Website:  https://openfoam.org
    \\  /    A nd           | Version:  6.0
     \\/     M anipulation  |
\*---------------------------------------------------------------------------*/
FoamFile
{
    version     2.0;
    format      ascii;
    class       volScalarField;
    location    "3.5";
    object      T;
}
// * * * * * * * * * * * * * * * * * * * * * * * * * * * * * * * * * * * * * //

dimensions      [0 0 0 1 0 0 0];

internalField   nonuniform List<scalar> 
1200
(
1
1
1
1
1
1
1
1
1
1
2.10346
2.71342
2.7362
2.7519
2.76927
2.7856
2.80032
2.81103
2.81787
2.82294
1
1
1
1
1
1
1
1
1
1
2.10183
2.71329
2.73614
2.75167
2.76898
2.78523
2.79986
2.81046
2.81717
2.82219
1
1
1
1
1
1
1
1
1
1
2.09647
2.71336
2.73594
2.75124
2.76848
2.78466
2.79915
2.80958
2.81608
2.82103
1
1
1
1
1
1
1
1
1
1
2.08637
2.71238
2.73559
2.75067
2.76777
2.7838
2.79811
2.80831
2.81449
2.81926
1
1
1
1
1
1
1
1
1
1
2.07199
2.70952
2.73476
2.74983
2.76683
2.78267
2.79673
2.80664
2.81244
2.81711
1
1
1
1
1
1
1
1
1
1
2.05401
2.70486
2.73323
2.74851
2.76551
2.78119
2.79502
2.80464
2.81001
2.81442
1
1
1
1
1
1
1
1
1
1
2.0327
2.69895
2.73099
2.74658
2.76368
2.77925
2.79283
2.80212
2.80705
2.81136
1
1
1
1
1
1
1
1
1
1
2.00786
2.69214
2.72813
2.74399
2.76123
2.77677
2.79019
2.7992
2.80368
2.80767
1
1
1
1
1
1
1
1
1
1
1.97906
2.68438
2.72479
2.74081
2.75814
2.77367
2.78692
2.79559
2.79963
2.80357
1
1
1
1
1
1
1
1
1
1
1.94585
2.67536
2.72108
2.73715
2.75444
2.76993
2.78307
2.7915
2.79509
2.79855
1
1
1
1
1
1
1
1
1
1
1.90794
2.66466
2.717
2.73309
2.75023
2.76563
2.77856
2.78654
2.78955
2.79297
1
1
1
1
1
1
1
1
1
1
1.86508
2.65186
2.71251
2.7286
2.74545
2.76065
2.77342
2.78108
2.78341
2.78601
1
1
1
1
1
1
1
1
1
1
1.81675
2.63644
2.70762
2.72383
2.74032
2.75519
2.76755
2.77443
2.77571
2.77816
1
1
1
1
1
1
1
1
1
1
1.76193
2.6176
2.70211
2.71859
2.73467
2.74909
2.76097
2.76723
2.76723
2.76819
1
1
1
1
1
1
1
1
1
1
1.70074
2.59521
2.69634
2.7133
2.72892
2.74264
2.75335
2.75818
2.75653
2.75702
1
1
1
1
1
1
1
1
1
1
1.63356
2.56941
2.68999
2.70756
2.72274
2.73569
2.74516
2.74874
2.74484
2.74215
1
1
1
1
1
1
1
1
1
1
1.5611
2.53981
2.68258
2.70102
2.71595
2.72826
2.73621
2.73707
2.72891
2.72326
1
1
1
1
1
1
1
1
1
1
1.47632
2.50245
2.67416
2.69464
2.70963
2.72082
2.72662
2.72459
2.71094
2.69435
1
1
1
1
1
1
1
1
1
1
1.36199
2.45184
2.66288
2.68631
2.70302
2.7136
2.71624
2.71068
2.68745
2.65278
1
1
1
1
1
1
1
1
1
1
1.22609
2.40304
2.65081
2.67623
2.69546
2.70637
2.70588
2.69647
2.67242
2.64252
1
1
1
1
1
1
1
1
1
1
1.02355
2.26323
2.61811
2.65097
2.66878
2.6777
2.6734
2.65504
2.62189
2.55272
1
1
1
1
1
1
1
1
1
1
1.00009
1.93477
2.55613
2.61355
2.61563
2.61919
2.61104
2.58296
2.54089
2.43588
1
1
1
1
1
1
1
1
1
1
1
1.36819
2.37865
2.56879
2.56498
2.56282
2.55068
2.52223
2.46815
2.35479
1
1
1
1
1
1
1
1
1
1
1
1.02241
2.10483
2.51961
2.51701
2.51111
2.49223
2.46424
2.40407
2.31595
1
1
1
1
1
1
1
1
1
1
1
1.00005
1.4388
2.33434
2.47899
2.46388
2.44478
2.41432
2.36126
2.29247
1
1
1
1
1
1
1
1
1
1
1
1
1.03044
2.00719
2.4279
2.42275
2.40272
2.37329
2.32802
2.27238
1
1
1
1
1
1
1
1
1
1
1
1
1.00012
1.27442
2.17917
2.38459
2.35913
2.33571
2.29683
2.25245
1
1
1
1
1
1
1
1
1
1
1
1
1
1.01024
1.63835
2.23119
2.33113
2.30197
2.26662
2.23093
1
1
1
1
1
1
1
1
1
1
1
1
1
1.00003
1.08509
1.87451
2.27262
2.26279
2.23679
2.20916
1
1
1
1
1
1
1
1
1
1
1
1
1
1
1.00108
1.23655
1.97773
2.21983
2.20139
2.17779
1
1
1
1
1
1
1
1
1
1
1
1
1
1
1
1.00812
1.37424
1.99553
2.16574
2.14587
1
1
1
1
1
1
1
1
1
1
1
1
1
1
1
1.00004
1.02393
1.46769
1.98235
2.11236
1
1
1
1
1
1
1
1
1
1
1
1
1
1
1
1
1.00018
1.04509
1.50679
1.97805
1
1
1
1
1
1
1
1
1
1
1
1
1
1
1
1
1
1.00052
1.06088
1.62107
1
1
1
1
1
1
1
1
1
1
1
1
1
1
1
1
1
1
1.00077
1.11101
1
1
1
1
1
1
1
1
1
1
1
1
1
1
1
1
1
1
1
1.00194
1
1
1
1
1
1
1
1
1
1
1
1
1
1
1
1
1
1
1
1
1
1
1
1
1
1
1
1
1
1
1
1
1
1
1
1
1
1
1
1
1
1
1
1
1
1
1
1
1
1
1
1
1
1
1
1
1
1
1
1
1
1
1
1
1
1
1
1
1
1
1
1
1
1
1
1
1
1
1
1
1.76048
1.57875
1.7198
1.86181
1.84483
1.9837
2.65727
2.82972
2.7943
2.72634
2.64587
2.56102
2.47871
2.40065
2.33118
2.26968
2.2135
2.16133
2.11643
2.04383
2.0668
1.67685
1.68617
1.73473
1.74171
1.86641
2.58232
2.77148
2.72562
2.65923
2.58836
2.51724
2.44524
2.37325
2.30726
2.24811
2.1945
2.14594
2.10436
2.03531
2.04427
1.68371
1.60498
1.57867
1.61232
1.70576
2.41009
2.61717
2.5716
2.52678
2.47333
2.41706
2.36074
2.30195
2.24528
2.19274
2.1458
2.10334
2.06701
2.00559
2.05239
1.73603
1.59599
1.49414
1.50484
1.61374
2.16606
2.49033
2.41854
2.37121
2.33168
2.29153
2.24857
2.20185
2.15524
2.11143
2.07089
2.03438
2.00423
1.95288
2.06907
1.78979
1.62025
1.46155
1.4687
1.6176
1.97226
2.34728
2.33302
2.2767
2.23253
2.19309
2.15402
2.11363
2.07255
2.03307
1.99578
1.9627
1.93609
1.89127
2.0792
1.84757
1.67298
1.48234
1.49017
1.6997
1.88448
2.21909
2.26851
2.22113
2.17577
2.13308
2.09165
2.05084
2.01028
1.97229
1.93625
1.90442
1.87798
1.83459
2.08176
1.8973
1.71938
1.52668
1.53602
1.81257
1.86707
2.05939
2.20022
2.18121
2.13594
2.094
2.05152
2.0095
1.96863
1.9309
1.89468
1.8625
1.83393
1.7887
2.08122
1.93405
1.75399
1.58361
1.6417
1.91623
1.88289
1.89029
2.0828
2.1327
2.10006
2.06105
2.01876
1.97739
1.93708
1.8999
1.86401
1.83205
1.80119
1.75454
2.07887
1.95795
1.77545
1.63818
1.80419
1.96762
1.90478
1.83437
1.91535
2.04785
2.06313
2.02558
1.98627
1.94775
1.90981
1.87415
1.83945
1.80813
1.77568
1.72922
2.07199
1.96401
1.78645
1.70752
1.96958
1.99071
1.91756
1.81879
1.77344
1.91404
2.00069
1.98375
1.95069
1.91595
1.88169
1.84847
1.81587
1.78562
1.752
1.70969
2.06362
1.95741
1.79974
1.81663
2.06186
2.00735
1.91552
1.81094
1.73659
1.76912
1.90272
1.93919
1.91511
1.88594
1.85474
1.82287
1.79247
1.76092
1.72735
1.69431
2.04997
1.93914
1.82622
1.97445
2.11385
2.01961
1.9135
1.81161
1.72371
1.68103
1.76884
1.87224
1.88249
1.86069
1.82956
1.79832
1.77107
1.73671
1.70647
1.68626
2.02895
1.91787
1.86283
2.13726
2.13042
2.0303
1.91645
1.81708
1.72083
1.65613
1.65525
1.76301
1.83401
1.82238
1.7961
1.76623
1.73902
1.70669
1.68455
1.69716
1.99127
1.90675
1.93328
2.23548
2.15108
2.03662
1.92121
1.82211
1.72674
1.64426
1.59482
1.6405
1.76187
1.78842
1.76658
1.73904
1.71208
1.68104
1.67145
1.72865
1.92779
1.90674
2.07535
2.29378
2.16712
2.04303
1.92627
1.82444
1.73112
1.6406
1.57408
1.54931
1.64563
1.73639
1.7345
1.71319
1.68387
1.66347
1.67326
1.77801
1.82375
1.9049
2.2782
2.34164
2.18309
2.04587
1.92629
1.82142
1.73063
1.6407
1.55866
1.51076
1.53809
1.64402
1.68867
1.67869
1.65809
1.66218
1.70809
1.81635
1.58643
1.97838
2.42995
2.35828
2.18421
2.04038
1.92013
1.81464
1.72428
1.64
1.55597
1.49282
1.47026
1.52979
1.63058
1.64723
1.64556
1.67339
1.77196
1.81916
1.31781
1.99171
2.51285
2.34406
2.17001
2.02618
1.90793
1.80484
1.715
1.63602
1.55583
1.48176
1.43752
1.43869
1.53789
1.59562
1.64289
1.73038
1.8306
1.81873
1.11174
1.97245
2.50769
2.30107
2.14119
2.00852
1.89635
1.79765
1.7091
1.63202
1.55968
1.48686
1.42152
1.39149
1.44535
1.56817
1.68503
1.78696
1.82818
1.81022
1.03069
2.0065
2.53136
2.29406
2.12637
1.99921
1.89196
1.79638
1.70826
1.63014
1.56258
1.49393
1.40938
1.36661
1.38775
1.54595
1.72875
1.84695
1.84389
1.81172
)
;

boundaryField
{
    inlet
    {
        type            fixedValue;
        value           uniform 1;
    }
    outlet
    {
        type            inletOutlet;
        inletValue      uniform 1;
        value           nonuniform List<scalar> 
20
(
2.0438
2.03528
2.0056
1.95293
1.8913
1.83462
1.78872
1.75456
1.72923
1.70967
1.69429
1.68612
1.69695
1.72827
1.77762
1.8161
1.81907
1.81871
1.8102
1.81174
)
;
    }
    bottom
    {
        type            symmetryPlane;
    }
    top
    {
        type            symmetryPlane;
    }
    obstacle
    {
        type            zeroGradient;
    }
    defaultFaces
    {
        type            empty;
    }
}


// ************************************************************************* //
