/*--------------------------------*- C++ -*----------------------------------*\
  =========                 |
  \\      /  F ield         | OpenFOAM: The Open Source CFD Toolbox
   \\    /   O peration     | Website:  https://openfoam.org
    \\  /    A nd           | Version:  6.0
     \\/     M anipulation  |
\*---------------------------------------------------------------------------*/
FoamFile
{
    version     2.0;
    format      ascii;
    class       volVectorField;
    location    "3.5";
    object      U;
}
// * * * * * * * * * * * * * * * * * * * * * * * * * * * * * * * * * * * * * //

dimensions      [0 1 -1 0 0 0 0];

internalField   nonuniform List<vector> 
1200
(
(3 1.5902e-15 0)
(3 -1.24944e-15 0)
(3 -2.32334e-15 0)
(3 -2.08584e-15 0)
(3 -8.46729e-16 0)
(3 3.61409e-16 0)
(3 7.22817e-17 0)
(3 -3.30431e-16 0)
(3 -1.96193e-16 0)
(3 -7.02166e-16 0)
(1.38346 0.0078532 0)
(0.727282 0.0084941 0)
(0.647491 0.0100736 0)
(0.578292 0.0108791 0)
(0.504434 0.0115342 0)
(0.428374 0.0123158 0)
(0.348257 0.0132101 0)
(0.261557 0.0147429 0)
(0.165384 0.0161908 0)
(0.0633724 0.0189373 0)
(3 5.67928e-16 0)
(3 -1.0326e-16 0)
(3 -3.71735e-15 0)
(3 -2.72605e-15 0)
(3 -1.94128e-15 0)
(3 2.40595e-15 0)
(3 3.30431e-16 0)
(3 -1.0739e-15 0)
(3 -6.81514e-16 0)
(3 -6.9184e-16 0)
(1.38162 0.027855 0)
(0.721582 0.0260653 0)
(0.640691 0.0288244 0)
(0.57143 0.0314512 0)
(0.497545 0.0336227 0)
(0.421765 0.0362777 0)
(0.342524 0.0393546 0)
(0.257485 0.0443727 0)
(0.163175 0.0490727 0)
(0.0629645 0.0575634 0)
(3 7.22817e-17 0)
(3 1.34238e-16 0)
(3 -3.12877e-15 0)
(3 -8.67381e-16 0)
(3 -8.77707e-16 0)
(3 1.3527e-15 0)
(3 -1.49726e-15 0)
(3 -2.16845e-16 0)
(3 2.47823e-16 0)
(3 7.22817e-17 0)
(1.39206 0.0497851 0)
(0.721561 0.0446372 0)
(0.63812 0.0488692 0)
(0.567532 0.0529862 0)
(0.492364 0.0563552 0)
(0.415465 0.0604211 0)
(0.335627 0.0650663 0)
(0.251308 0.0730906 0)
(0.158861 0.0808532 0)
(0.061828 0.0951842 0)
(3 1.75541e-16 0)
(3 4.54342e-16 0)
(3 6.09232e-16 0)
(3 -7.22817e-16 0)
(3 1.36303e-15 0)
(3 -1.30107e-15 0)
(3 -2.64345e-15 0)
(3 -9.49989e-16 0)
(3 2.06519e-16 0)
(3 1.71411e-15 0)
(1.41131 0.0709783 0)
(0.724991 0.0635365 0)
(0.639636 0.069089 0)
(0.568199 0.0749431 0)
(0.491674 0.0797846 0)
(0.413075 0.0854311 0)
(0.331461 0.0914468 0)
(0.246291 0.101897 0)
(0.154231 0.112088 0)
(0.0600218 0.131864 0)
(3 5.16298e-17 0)
(3 1.44563e-15 0)
(3 4.69831e-15 0)
(3 2.58149e-15 0)
(3 -7.84773e-16 0)
(3 -3.14942e-15 0)
(3 -4.02713e-16 0)
(3 -1.25977e-15 0)
(3 5.05972e-16 0)
(3 3.83093e-15 0)
(1.43663 0.0913459 0)
(0.729359 0.0827016 0)
(0.642282 0.0894693 0)
(0.570759 0.0970445 0)
(0.493703 0.103499 0)
(0.41406 0.110958 0)
(0.330785 0.118461 0)
(0.244221 0.131155 0)
(0.151459 0.143201 0)
(0.0591253 0.16764 0)
(3 2.06519e-17 0)
(3 1.01194e-15 0)
(3 4.17169e-15 0)
(3 3.66572e-15 0)
(3 1.78639e-15 0)
(3 -2.17878e-15 0)
(3 2.83964e-15 0)
(3 4.35756e-15 0)
(3 7.61024e-15 0)
(3 1.72444e-15 0)
(1.46765 0.111192 0)
(0.73393 0.102032 0)
(0.645031 0.109936 0)
(0.573927 0.119211 0)
(0.496945 0.1274 0)
(0.416907 0.136904 0)
(0.332286 0.146099 0)
(0.243975 0.161023 0)
(0.149488 0.174481 0)
(0.0579594 0.202852 0)
(3 1.0326e-16 0)
(3 5.78254e-16 0)
(3 -3.20105e-16 0)
(3 1.10488e-15 0)
(3 -5.16298e-17 0)
(3 -2.01356e-15 0)
(3 -1.47661e-15 0)
(3 1.00162e-15 0)
(3 2.39562e-15 0)
(3 -4.74994e-16 0)
(1.50477 0.130864 0)
(0.738655 0.121639 0)
(0.647424 0.13039 0)
(0.577162 0.141282 0)
(0.500829 0.151295 0)
(0.421096 0.163103 0)
(0.335806 0.17431 0)
(0.246228 0.191653 0)
(0.149843 0.206296 0)
(0.0582006 0.237886 0)
(3 6.19558e-17 0)
(3 4.13039e-16 0)
(3 -1.87933e-15 0)
(3 -3.39724e-15 0)
(3 -5.11135e-15 0)
(3 -4.08908e-15 0)
(3 -1.38368e-15 0)
(3 -1.97226e-15 0)
(3 -5.83417e-15 0)
(3 -5.28689e-15 0)
(1.54877 0.150572 0)
(0.743911 0.141748 0)
(0.649429 0.1508 0)
(0.580207 0.163131 0)
(0.50499 0.17501 0)
(0.426182 0.189361 0)
(0.340673 0.202989 0)
(0.249801 0.223115 0)
(0.150892 0.238932 0)
(0.0579842 0.273187 0)
(3 -6.81514e-16 0)
(3 -1.18749e-15 0)
(3 -1.73476e-15 0)
(3 -1.61085e-15 0)
(3 -1.29075e-15 0)
(3 -3.35594e-15 0)
(3 -2.7054e-15 0)
(3 -3.10812e-15 0)
(3 -7.50698e-15 0)
(3 -8.15751e-15 0)
(1.60057 0.170296 0)
(0.750215 0.1626 0)
(0.651325 0.171208 0)
(0.583095 0.184691 0)
(0.50927 0.198408 0)
(0.431968 0.2155 0)
(0.347074 0.231945 0)
(0.255906 0.255245 0)
(0.154912 0.272466 0)
(0.0600327 0.309235 0)
(3 -1.34238e-16 0)
(3 -2.57117e-15 0)
(3 -1.42498e-15 0)
(3 -4.3369e-16 0)
(3 6.09232e-16 0)
(3 -3.82061e-16 0)
(3 -1.99291e-15 0)
(3 -2.37497e-15 0)
(3 -3.6967e-15 0)
(3 -4.31625e-15 0)
(1.661 0.189797 0)
(0.758007 0.184389 0)
(0.653526 0.191713 0)
(0.586044 0.205974 0)
(0.513701 0.221387 0)
(0.43833 0.241311 0)
(0.354371 0.261049 0)
(0.262582 0.288256 0)
(0.158461 0.307484 0)
(0.0604195 0.346578 0)
(3 -2.89127e-16 0)
(3 -3.30431e-16 0)
(3 -1.89998e-15 0)
(3 -7.12492e-16 0)
(3 1.0326e-15 0)
(3 2.22008e-15 0)
(3 -3.09779e-17 0)
(3 -3.13909e-15 0)
(3 -3.40757e-15 0)
(3 -4.56408e-15 0)
(1.7305 0.208838 0)
(0.767393 0.207225 0)
(0.656379 0.212357 0)
(0.589584 0.227019 0)
(0.518566 0.243995 0)
(0.445022 0.266868 0)
(0.36247 0.290294 0)
(0.271436 0.321871 0)
(0.16538 0.34371 0)
(0.0639776 0.385387 0)
(3 -3.92387e-16 0)
(3 6.81514e-16 0)
(3 -4.3369e-16 0)
(3 1.02227e-15 0)
(3 5.67928e-16 0)
(3 2.16845e-16 0)
(3 -9.49989e-16 0)
(3 -3.63474e-15 0)
(3 -6.05101e-15 0)
(3 -5.11135e-15 0)
(1.80942 0.227449 0)
(0.778204 0.231256 0)
(0.659455 0.233113 0)
(0.593524 0.247748 0)
(0.52444 0.266053 0)
(0.453433 0.291787 0)
(0.372481 0.319338 0)
(0.281322 0.356387 0)
(0.171392 0.382235 0)
(0.0647409 0.426579 0)
(3 -5.16298e-17 0)
(3 0 0)
(3 1.10488e-15 0)
(3 3.00486e-15 0)
(3 7.84773e-16 0)
(3 7.95099e-16 0)
(3 5.16298e-17 0)
(3 -2.04454e-15 0)
(3 -4.03745e-15 0)
(3 4.13039e-17 0)
(1.89901 0.245772 0)
(0.791164 0.256727 0)
(0.662987 0.254162 0)
(0.597334 0.268316 0)
(0.529801 0.287784 0)
(0.461386 0.316484 0)
(0.383058 0.348483 0)
(0.294284 0.391362 0)
(0.182706 0.422263 0)
(0.0705932 0.470177 0)
(3 2.06519e-17 0)
(3 1.85867e-16 0)
(3 1.12553e-15 0)
(3 1.9103e-15 0)
(3 4.80157e-15 0)
(3 4.5744e-15 0)
(3 7.64121e-16 0)
(3 -1.04292e-15 0)
(3 1.94128e-15 0)
(3 3.6967e-15 0)
(2.00135 0.262291 0)
(0.808071 0.283405 0)
(0.668925 0.275376 0)
(0.603245 0.288558 0)
(0.53722 0.30875 0)
(0.4717 0.340099 0)
(0.395917 0.376921 0)
(0.308416 0.427276 0)
(0.192302 0.466042 0)
(0.0718589 0.51806 0)
(3 1.23912e-16 0)
(3 3.82061e-16 0)
(3 7.95099e-16 0)
(3 -3.40757e-16 0)
(3 1.73476e-15 0)
(3 4.21299e-15 0)
(3 4.58473e-15 0)
(3 4.60538e-15 0)
(3 3.44887e-15 0)
(3 1.77607e-15 0)
(2.11419 0.276913 0)
(0.828452 0.311387 0)
(0.676293 0.297175 0)
(0.610009 0.309217 0)
(0.544735 0.329844 0)
(0.481758 0.363693 0)
(0.409443 0.405446 0)
(0.326853 0.463048 0)
(0.210381 0.511506 0)
(0.0812114 0.569859 0)
(3 -2.58149e-16 0)
(3 -1.23912e-16 0)
(3 2.06519e-17 0)
(3 -2.34399e-15 0)
(3 -5.20429e-15 0)
(3 -1.3114e-15 0)
(3 7.02166e-16 0)
(3 1.17716e-15 0)
(3 8.98359e-16 0)
(3 1.65215e-15 0)
(2.23512 0.28664 0)
(0.851096 0.340405 0)
(0.686401 0.318312 0)
(0.621303 0.329018 0)
(0.556843 0.349865 0)
(0.495803 0.385914 0)
(0.426823 0.432654 0)
(0.345973 0.499781 0)
(0.22618 0.563234 0)
(0.0836171 0.629873 0)
(3 3.09779e-16 0)
(3 9.70641e-16 0)
(3 1.44563e-16 0)
(3 -3.42822e-15 0)
(3 -4.74994e-15 0)
(3 -2.80866e-15 0)
(3 -5.16298e-17 0)
(3 -4.95646e-16 0)
(3 3.65539e-15 0)
(3 1.8277e-15 0)
(2.36385 0.295284 0)
(0.874711 0.371887 0)
(0.691665 0.339908 0)
(0.628279 0.349566 0)
(0.566535 0.370329 0)
(0.509825 0.407835 0)
(0.446012 0.459153 0)
(0.37118 0.53587 0)
(0.255379 0.616379 0)
(0.100144 0.697272 0)
(3 8.05425e-16 0)
(3 7.33143e-16 0)
(3 -3.71735e-16 0)
(3 -2.13747e-15 0)
(3 2.00324e-15 0)
(3 1.28042e-15 0)
(3 7.95099e-16 0)
(3 1.69346e-15 0)
(3 1.38368e-15 0)
(3 -8.77707e-16 0)
(2.52149 0.298438 0)
(0.911409 0.408999 0)
(0.70503 0.36387 0)
(0.639842 0.371297 0)
(0.57735 0.390743 0)
(0.523962 0.428553 0)
(0.466064 0.484132 0)
(0.399471 0.572036 0)
(0.283929 0.679405 0)
(0.106188 0.783158 0)
(3 7.74447e-16 0)
(3 -4.23365e-16 0)
(3 -2.64345e-15 0)
(3 1.20814e-15 0)
(3 1.8277e-15 0)
(3 8.88033e-16 0)
(3 4.3369e-16 0)
(3 2.64345e-15 0)
(3 1.5902e-15 0)
(3 3.40757e-16 0)
(2.74037 0.28105 0)
(0.983208 0.437831 0)
(0.744424 0.383727 0)
(0.669967 0.392384 0)
(0.598973 0.411295 0)
(0.542062 0.448863 0)
(0.487625 0.507783 0)
(0.433851 0.606592 0)
(0.335304 0.740337 0)
(0.133346 0.880873 0)
(3 9.29337e-17 0)
(3 4.3369e-16 0)
(3 1.32172e-15 0)
(3 4.5331e-15 0)
(3 2.82931e-15 0)
(3 1.80704e-15 0)
(3 3.57278e-15 0)
(3 3.65539e-15 0)
(3 2.64345e-15 0)
(3 9.70641e-16 0)
(2.95889 0.199967 0)
(1.07213 0.46427 0)
(0.800603 0.408013 0)
(0.716758 0.416743 0)
(0.635931 0.433244 0)
(0.571386 0.469835 0)
(0.515358 0.530473 0)
(0.473471 0.637071 0)
(0.40019 0.808778 0)
(0.200142 1.04053 0)
(3 -2.16845e-16 0)
(3 1.44563e-16 0)
(3 1.02227e-15 0)
(3 1.43531e-15 0)
(3 1.40949e-15 0)
(3 1.47919e-15 0)
(3 1.26751e-15 0)
(3 3.53664e-16 0)
(3 1.13586e-16 0)
(3 -3.25268e-16 0)
(3.03937 0.0158314 0)
(1.27367 0.480057 0)
(0.858092 0.468855 0)
(0.791913 0.469422 0)
(0.725014 0.48502 0)
(0.662636 0.517944 0)
(0.608995 0.579894 0)
(0.576775 0.701414 0)
(0.590849 0.887278 0)
(0.691926 1.14578 0)
(3 2.83964e-17 0)
(3 1.2133e-16 0)
(3 -4.38853e-16 0)
(3 -7.35725e-16 0)
(3 -5.85998e-16 0)
(3 -7.22817e-17 0)
(3 -1.172e-15 0)
(3 -9.19011e-16 0)
(3 -1.12553e-15 0)
(3 -2.19685e-15 0)
(3.00086 3.88666e-05 0)
(1.77609 0.481236 0)
(0.90578 0.546352 0)
(0.832822 0.559163 0)
(0.802718 0.588744 0)
(0.767924 0.622802 0)
(0.749277 0.678333 0)
(0.754037 0.776591 0)
(0.843879 0.908561 0)
(1.08783 1.01588 0)
(3 4.64668e-17 0)
(3 1.44563e-16 0)
(3 -6.60862e-16 0)
(3 -6.42791e-16 0)
(3 -4.54342e-16 0)
(3 -3.87224e-17 0)
(3 -6.66025e-16 0)
(3 1.29075e-17 0)
(3 9.70641e-16 0)
(3 3.04616e-16 0)
(3 1.20527e-08 0)
(2.73376 0.26952 0)
(1.10274 0.616202 0)
(0.915904 0.597769 0)
(0.898427 0.632258 0)
(0.881683 0.665256 0)
(0.884982 0.714378 0)
(0.915885 0.784544 0)
(1.02502 0.869998 0)
(1.24826 0.935521 0)
(3 -2.19427e-16 0)
(3 -7.35725e-16 0)
(3 -5.31787e-16 0)
(3 -6.32465e-16 0)
(3 -8.93196e-16 0)
(3 -9.96456e-16 0)
(3 -5.96324e-16 0)
(3 -1.00678e-15 0)
(3 -6.45373e-17 0)
(3 1.7709e-15 0)
(3 -2.99103e-08 0)
(3.04157 0.0129043 0)
(1.56723 0.616971 0)
(1.00961 0.685054 0)
(0.973684 0.686756 0)
(0.970497 0.720727 0)
(0.990875 0.76234 0)
(1.04376 0.808214 0)
(1.15281 0.860277 0)
(1.32992 0.897332 0)
(3 -1.0326e-17 0)
(3 -1.18232e-15 0)
(3 -8.88033e-16 0)
(3 -1.11004e-15 0)
(3 -1.71411e-15 0)
(3 -1.99033e-15 0)
(3 -2.86545e-16 0)
(3 -2.96871e-16 0)
(3 -4.25946e-16 0)
(3 -6.14395e-16 0)
(3 -4.35839e-09 0)
(3.0008 0.000149837 0)
(2.63158 0.359802 0)
(1.21559 0.740104 0)
(1.05001 0.741345 0)
(1.06357 0.744826 0)
(1.08433 0.770076 0)
(1.1393 0.803431 0)
(1.23369 0.835856 0)
(1.37487 0.8579 0)
(3 2.19427e-16 0)
(3 7.43469e-16 0)
(3 6.24721e-16 0)
(3 5.57602e-16 0)
(3 8.67381e-16 0)
(3 6.86677e-16 0)
(3 8.38985e-16 0)
(3 1.00162e-15 0)
(3 9.88711e-16 0)
(3 1.29333e-15 0)
(3 -1.75734e-10 0)
(3 9.41115e-08 0)
(3.03772 0.0188229 0)
(1.7491 0.691625 0)
(1.14315 0.791672 0)
(1.14627 0.789994 0)
(1.16808 0.80315 0)
(1.21709 0.817694 0)
(1.29409 0.831911 0)
(1.40729 0.840967 0)
(3 -1.54889e-16 0)
(3 5.29206e-16 0)
(3 1.45854e-15 0)
(3 2.10133e-15 0)
(3 2.40595e-15 0)
(3 1.77607e-15 0)
(3 1.283e-15 0)
(3 1.45854e-15 0)
(3 1.10746e-15 0)
(3 2.20976e-15 0)
(3 -3.25046e-13 0)
(3 -8.01304e-09 0)
(3.00084 0.000373416 0)
(2.86174 0.248856 0)
(1.47588 0.823141 0)
(1.20833 0.827146 0)
(1.25227 0.823857 0)
(1.28655 0.829243 0)
(1.34917 0.833469 0)
(1.43949 0.832098 0)
(3 -2.19427e-16 0)
(3 -7.04747e-16 0)
(3 -6.9184e-16 0)
(3 -4.77576e-16 0)
(3 -5.03391e-16 0)
(3 -3.79479e-16 0)
(3 -5.55021e-16 0)
(3 -5.11135e-16 0)
(3 -5.60184e-16 0)
(3 -8.44148e-16 0)
(3 -3.3895e-15 0)
(3 -1.20589e-09 0)
(3 3.40464e-07 0)
(3.01195 0.00937383 0)
(2.34046 0.58581 0)
(1.34994 0.864422 0)
(1.30072 0.868268 0)
(1.34848 0.860626 0)
(1.39878 0.857092 0)
(1.46964 0.846087 0)
(3 1.18749e-16 0)
(3 2.19427e-16 0)
(3 1.18749e-16 0)
(3 -2.83964e-17 0)
(3 2.19427e-16 0)
(3 2.60731e-16 0)
(3 6.47954e-16 0)
(3 6.55699e-16 0)
(3 -6.45373e-17 0)
(3 1.41982e-16 0)
(3 -7.48632e-16 0)
(3 -5.38628e-11 0)
(3 -3.84973e-11 0)
(3.00007 0.000122134 0)
(3.00426 0.0696677 0)
(1.92424 0.748145 0)
(1.38126 0.881393 0)
(1.40614 0.880681 0)
(1.45264 0.87348 0)
(1.51024 0.857546 0)
(3 1.18749e-16 0)
(3 1.31656e-16 0)
(3 4.00131e-16 0)
(3 7.48632e-17 0)
(3 1.39401e-16 0)
(3 -1.39401e-16 0)
(3 4.18202e-16 0)
(3 3.20105e-16 0)
(3 1.16167e-16 0)
(3 3.87224e-17 0)
(3 9.06103e-16 0)
(3 -2.78646e-13 0)
(3 -8.03113e-12 0)
(3 5.54975e-08 0)
(3.00115 0.00239812 0)
(2.86907 0.221994 0)
(1.76911 0.832766 0)
(1.45622 0.907116 0)
(1.493 0.900644 0)
(1.54757 0.883784 0)
(3 -1.9103e-16 0)
(3 -4.23365e-16 0)
(3 -8.90614e-16 0)
(3 -6.60862e-16 0)
(3 -9.73222e-16 0)
(3 -1.29333e-15 0)
(3 -2.0084e-15 0)
(3 -3.0539e-15 0)
(3 -2.01356e-15 0)
(3 -2.58665e-15 0)
(3 -1.71153e-15 0)
(3 -3.25784e-15 0)
(3 -5.96588e-13 0)
(3 6.25023e-12 0)
(3 5.67887e-06 0)
(3.00209 0.0117813 0)
(2.68318 0.377266 0)
(1.73937 0.8761 0)
(1.52861 0.923792 0)
(1.57502 0.913801 0)
(3 2.22008e-16 0)
(3 5.16298e-16 0)
(3 5.55021e-16 0)
(3 4.10457e-16 0)
(3 -1.47661e-15 0)
(3 -3.04616e-15 0)
(3 -3.96775e-15 0)
(3 -4.76027e-15 0)
(3 -3.90838e-15 0)
(3 -3.91354e-15 0)
(3 -2.75445e-15 0)
(3 -4.00131e-16 0)
(3 -8.82612e-15 0)
(3 -2.42299e-14 0)
(3 1.6285e-09 0)
(3 9.45292e-05 0)
(2.99631 0.0282274 0)
(2.53906 0.485617 0)
(1.75903 0.902996 0)
(1.60592 0.93119 0)
(3 2.14264e-16 0)
(3 5.21461e-16 0)
(3 7.17654e-16 0)
(3 1.00678e-16 0)
(3 3.82061e-16 0)
(3 -7.48632e-17 0)
(3 5.83417e-16 0)
(3 1.34754e-15 0)
(3 7.0991e-16 0)
(3 2.41628e-15 0)
(3 2.31043e-15 0)
(3 2.93257e-15 0)
(3 2.02389e-15 0)
(3 -1.21743e-14 0)
(3 1.41698e-13 0)
(3 6.15502e-08 0)
(2.99998 0.00042428 0)
(2.97865 0.0526793 0)
(2.50406 0.545915 0)
(1.75755 0.911132 0)
(3 3.76898e-16 0)
(3 -3.09779e-17 0)
(3 -1.64183e-15 0)
(3 -1.32689e-15 0)
(3 1.66764e-15 0)
(3 3.29656e-15 0)
(3 6.07941e-15 0)
(3 5.90645e-15 0)
(3 5.07779e-15 0)
(3 3.95226e-15 0)
(3 2.50405e-15 0)
(3 8.28659e-16 0)
(3 -9.68059e-16 0)
(3 -4.02971e-15 0)
(3 -9.70382e-15 0)
(3 1.35989e-11 0)
(3 3.97281e-07 0)
(2.99974 0.00131623 0)
(2.9867 0.0593215 0)
(2.33636 0.652617 0)
(3 1.60052e-16 0)
(3 -1.26493e-16 0)
(3 4.02713e-16 0)
(3 1.93612e-16 0)
(3 -3.56246e-16 0)
(3 -1.13586e-16 0)
(3 1.18749e-16 0)
(3 5.85998e-16 0)
(3 1.18749e-16 0)
(3 -7.20236e-16 0)
(3 -2.20459e-15 0)
(3 -2.76478e-15 0)
(3 -2.22525e-15 0)
(3 4.13039e-16 0)
(3 -3.44371e-15 0)
(3 -3.73542e-15 0)
(3 1.59252e-10 0)
(3 1.78782e-06 0)
(2.99992 0.00199635 0)
(2.9816 0.0987888 0)
(3 -6.99584e-16 0)
(3 -4.28528e-16 0)
(3 5.78254e-16 0)
(3 1.06874e-15 0)
(3 -4.13039e-17 0)
(3 -3.22686e-16 0)
(3 -1.86384e-15 0)
(3 -1.5618e-15 0)
(3 -1.5618e-15 0)
(3 -1.66506e-15 0)
(3 -1.6599e-15 0)
(3 -1.06874e-15 0)
(3 -1.2417e-15 0)
(3 5.16298e-18 0)
(3 -4.59505e-16 0)
(3 -1.28558e-15 0)
(3 1.90617e-14 0)
(3 5.69733e-10 0)
(3 7.3864e-06 0)
(3.00495 0.000911732 0)
(3 -1.70378e-16 0)
(3 -4.49179e-16 0)
(3 -9.68059e-16 0)
(3 -6.0665e-16 0)
(3 -5.05972e-16 0)
(3 -5.42113e-17 0)
(3 -3.84642e-16 0)
(3 -4.54342e-16 0)
(3 -1.12295e-15 0)
(3 -7.66703e-16 0)
(3 1.75541e-16 0)
(3 -1.02227e-15 0)
(3 -3.45662e-15 0)
(3 -5.2998e-15 0)
(3 -3.06939e-15 0)
(3 -1.87416e-15 0)
(3 -2.26139e-15 0)
(3 3.41247e-14 0)
(3 5.49963e-09 0)
(3.00003 8.96535e-07 0)
(3 1.96193e-16 0)
(3 4.95646e-16 0)
(3 5.03391e-16 0)
(3 6.42791e-16 0)
(3 8.95777e-16 0)
(3 6.53117e-16 0)
(3 1.45596e-15 0)
(3 1.63925e-15 0)
(3 6.22139e-16 0)
(3 7.69284e-16 0)
(3 6.01487e-16 0)
(3 7.04747e-16 0)
(3 1.52824e-15 0)
(3 2.1065e-15 0)
(3 2.02389e-15 0)
(3 2.00324e-15 0)
(3 1.43531e-15 0)
(3 5.03391e-16 0)
(3 1.55222e-12 0)
(3 -3.08088e-10 0)
(3 6.97003e-17 0)
(3 3.1236e-16 0)
(3 5.21461e-16 0)
(3 2.71057e-16 0)
(3 3.74316e-16 0)
(3 3.71735e-16 0)
(3 3.22686e-16 0)
(3 2.2459e-16 0)
(3 6.68606e-16 0)
(3 1.43015e-15 0)
(3 1.95161e-15 0)
(3 3.2501e-15 0)
(3 4.93323e-15 0)
(3 5.92194e-15 0)
(3 5.69477e-15 0)
(3 5.56569e-15 0)
(3 4.80157e-15 0)
(3 2.46532e-15 0)
(3 5.33594e-15 0)
(3 -3.05927e-10 0)
(3 -2.73638e-16 0)
(3 -2.86545e-16 0)
(3 -4.05294e-16 0)
(3 -5.93743e-16 0)
(3 -7.7961e-16 0)
(3 -6.01487e-16 0)
(3 -1.16683e-15 0)
(3 -1.51017e-15 0)
(3 -1.34238e-15 0)
(3 -7.53795e-16 0)
(3 1.41982e-16 0)
(3 5.05972e-16 0)
(3 9.16429e-16 0)
(3 9.78385e-16 0)
(3 1.85351e-15 0)
(3 1.89481e-15 0)
(3 2.02131e-15 0)
(3 1.33463e-15 0)
(3 2.28462e-15 0)
(3 -3.81564e-11 0)
(1.72894 1.07494 0)
(2.41324 0.213216 0)
(2.35985 -0.0633843 0)
(2.21072 -0.075414 0)
(2.27477 -0.0331914 0)
(2.06185 0.0404857 0)
(0.876372 0.0252887 0)
(0.758138 -0.0366412 0)
(0.924674 -0.0544637 0)
(1.12261 -0.0502321 0)
(1.29644 -0.0355895 0)
(1.43464 -0.0198837 0)
(1.54486 -0.00870412 0)
(1.6449 -0.00503197 0)
(1.74234 0.000323164 0)
(1.82653 0.00254186 0)
(1.91278 0.00542606 0)
(1.99536 0.00810151 0)
(2.06237 0.0107486 0)
(2.15938 0.0124094 0)
(1.82499 0.536825 0)
(2.416 -0.00766409 0)
(2.45315 -0.264366 0)
(2.36332 -0.134799 0)
(2.33415 0.00201143 0)
(2.2477 0.0997085 0)
(1.07123 0.0256646 0)
(0.936195 -0.0859987 0)
(1.09298 -0.0748781 0)
(1.24468 -0.0522975 0)
(1.37685 -0.0302535 0)
(1.49069 -0.0148963 0)
(1.58873 -0.0032356 0)
(1.68045 0.00244176 0)
(1.76803 0.00950169 0)
(1.85075 0.0136606 0)
(1.93365 0.0201929 0)
(2.0131 0.0243172 0)
(2.07878 0.0278158 0)
(2.17525 0.0302546 0)
(1.82564 0.62525 0)
(2.28141 0.377563 0)
(2.44015 -0.142794 0)
(2.51088 -0.110431 0)
(2.48133 -0.0306838 0)
(2.41418 -0.0248801 0)
(1.52511 0.0499424 0)
(1.27239 -0.146056 0)
(1.37677 -0.12513 0)
(1.46607 -0.0857401 0)
(1.5428 -0.0578269 0)
(1.61805 -0.0380713 0)
(1.69369 -0.0168604 0)
(1.76766 -0.00699988 0)
(1.84037 0.00381977 0)
(1.91258 0.0129628 0)
(1.98388 0.0203406 0)
(2.05305 0.0265625 0)
(2.1116 0.0348954 0)
(2.20105 0.0440057 0)
(1.79792 0.705435 0)
(2.23353 0.408197 0)
(2.44477 -0.123767 0)
(2.58484 -0.133501 0)
(2.57037 -0.0971555 0)
(2.42228 -0.213223 0)
(1.90678 -0.169976 0)
(1.51132 -0.079355 0)
(1.58451 -0.114699 0)
(1.63983 -0.0927047 0)
(1.69191 -0.0488581 0)
(1.74789 -0.0101662 0)
(1.80894 0.0113672 0)
(1.87134 0.0192021 0)
(1.93228 0.0269913 0)
(1.99192 0.032404 0)
(2.05021 0.0414943 0)
(2.10609 0.0506422 0)
(2.1535 0.0616312 0)
(2.23117 0.0707096 0)
(1.77854 0.729284 0)
(2.16717 0.500017 0)
(2.40151 0.0662961 0)
(2.57387 -0.015072 0)
(2.56177 -0.0629509 0)
(2.36324 -0.341415 0)
(2.14296 -0.503524 0)
(1.59786 -0.175386 0)
(1.63735 -0.0913282 0)
(1.71103 -0.0604512 0)
(1.77643 -0.033944 0)
(1.83615 -0.0124517 0)
(1.89611 0.00888979 0)
(1.95472 0.0224614 0)
(2.01097 0.0340801 0)
(2.0629 0.042856 0)
(2.11228 0.0557438 0)
(2.15879 0.0653928 0)
(2.1982 0.0775476 0)
(2.26558 0.0901007 0)
(1.75257 0.758859 0)
(2.08813 0.571506 0)
(2.35488 0.171947 0)
(2.5973 0.0905103 0)
(2.51452 -0.10823 0)
(2.25279 -0.499247 0)
(2.15183 -0.737345 0)
(1.67243 -0.261048 0)
(1.64057 -0.110341 0)
(1.75127 -0.0629694 0)
(1.82659 -0.0235779 0)
(1.89012 0.00965429 0)
(1.95075 0.0326619 0)
(2.00876 0.0449401 0)
(2.06311 0.0572062 0)
(2.11085 0.0678708 0)
(2.15554 0.0836223 0)
(2.19723 0.0933694 0)
(2.23331 0.107044 0)
(2.2961 0.119405 0)
(1.72708 0.784827 0)
(2.04152 0.591742 0)
(2.29286 0.298355 0)
(2.56303 0.202318 0)
(2.4473 -0.0906441 0)
(2.16114 -0.573719 0)
(2.11554 -0.787097 0)
(1.93657 -0.444616 0)
(1.71145 -0.135289 0)
(1.80749 -0.0534651 0)
(1.87373 -0.0162295 0)
(1.93633 0.0133671 0)
(1.99583 0.0385772 0)
(2.0509 0.057839 0)
(2.10162 0.0773065 0)
(2.14629 0.0908471 0)
(2.18881 0.107927 0)
(2.22819 0.114232 0)
(2.26404 0.128662 0)
(2.32521 0.142382 0)
(1.70838 0.8062 0)
(1.9949 0.620787 0)
(2.24741 0.408396 0)
(2.47479 0.266727 0)
(2.37244 -0.112486 0)
(2.08935 -0.563157 0)
(2.04283 -0.767261 0)
(2.0657 -0.638857 0)
(1.89743 -0.240204 0)
(1.87208 -0.0646262 0)
(1.93316 -0.00770285 0)
(1.98356 0.0270708 0)
(2.03567 0.0584029 0)
(2.08572 0.081744 0)
(2.13336 0.10323 0)
(2.17521 0.118055 0)
(2.21372 0.138432 0)
(2.24865 0.144942 0)
(2.28326 0.163886 0)
(2.34407 0.17716 0)
(1.70073 0.822405 0)
(1.96847 0.635594 0)
(2.2039 0.516244 0)
(2.38923 0.284529 0)
(2.24966 -0.177188 0)
(1.99549 -0.600532 0)
(2.02465 -0.672027 0)
(2.11489 -0.672942 0)
(2.09737 -0.42616 0)
(1.97497 -0.115967 0)
(1.99023 0.000880026 0)
(2.03048 0.0377599 0)
(2.07649 0.0743962 0)
(2.1223 0.10141 0)
(2.1657 0.128545 0)
(2.20385 0.146061 0)
(2.23991 0.168411 0)
(2.2744 0.171509 0)
(2.31213 0.192539 0)
(2.37127 0.199835 0)
(1.70034 0.841619 0)
(1.94792 0.661843 0)
(2.16382 0.612853 0)
(2.26729 0.300567 0)
(2.08823 -0.253207 0)
(1.97809 -0.560391 0)
(2.03625 -0.619848 0)
(2.13827 -0.640386 0)
(2.19757 -0.55451 0)
(2.13244 -0.251993 0)
(2.05393 -0.0174024 0)
(2.0723 0.065655 0)
(2.10839 0.0988682 0)
(2.15132 0.125453 0)
(2.19349 0.15341 0)
(2.23179 0.170775 0)
(2.26812 0.194698 0)
(2.30232 0.19846 0)
(2.33805 0.227357 0)
(2.38775 0.231138 0)
(1.70422 0.861673 0)
(1.94088 0.694507 0)
(2.14909 0.685498 0)
(2.09702 0.235379 0)
(1.96308 -0.30932 0)
(1.96056 -0.528447 0)
(2.05241 -0.552547 0)
(2.15812 -0.598137 0)
(2.2424 -0.575154 0)
(2.2421 -0.395361 0)
(2.15381 -0.0870045 0)
(2.12201 0.0723925 0)
(2.14303 0.119462 0)
(2.17701 0.149798 0)
(2.21235 0.181124 0)
(2.24447 0.202941 0)
(2.27785 0.229052 0)
(2.31331 0.232584 0)
(2.35183 0.265209 0)
(2.40668 0.245981 0)
(1.72266 0.871638 0)
(1.93143 0.746481 0)
(2.11378 0.686452 0)
(1.97574 0.138049 0)
(1.89504 -0.30643 0)
(1.95625 -0.448382 0)
(2.06383 -0.496789 0)
(2.17137 -0.524478 0)
(2.25723 -0.549748 0)
(2.30879 -0.473728 0)
(2.25354 -0.221436 0)
(2.17869 0.0326515 0)
(2.18447 0.142301 0)
(2.20179 0.173716 0)
(2.23507 0.206053 0)
(2.26816 0.227465 0)
(2.29996 0.251226 0)
(2.3412 0.262042 0)
(2.35531 0.300585 0)
(2.40807 0.258671 0)
(1.74123 0.905906 0)
(1.92222 0.805211 0)
(2.05962 0.634913 0)
(1.87323 0.022056 0)
(1.86164 -0.316457 0)
(1.95225 -0.385848 0)
(2.07177 -0.435664 0)
(2.17569 -0.459955 0)
(2.26795 -0.487304 0)
(2.32285 -0.472988 0)
(2.32819 -0.330249 0)
(2.26825 -0.0488638 0)
(2.21887 0.154099 0)
(2.21911 0.206056 0)
(2.24049 0.239417 0)
(2.27208 0.259292 0)
(2.30511 0.281232 0)
(2.35429 0.300339 0)
(2.36417 0.319638 0)
(2.39426 0.240361 0)
(1.79371 0.885338 0)
(1.90211 0.854801 0)
(1.98096 0.541318 0)
(1.78021 -0.0346029 0)
(1.83237 -0.261077 0)
(1.94161 -0.320907 0)
(2.06332 -0.366725 0)
(2.16625 -0.388373 0)
(2.26443 -0.417879 0)
(2.33848 -0.431699 0)
(2.39206 -0.374796 0)
(2.36177 -0.17777 0)
(2.30038 0.0817741 0)
(2.26666 0.223891 0)
(2.27042 0.267045 0)
(2.29444 0.289293 0)
(2.32628 0.31462 0)
(2.35828 0.339786 0)
(2.37558 0.324038 0)
(2.36098 0.184524 0)
(1.8897 0.84109 0)
(1.9214 0.852038 0)
(1.81547 0.384016 0)
(1.6488 -0.0632109 0)
(1.78725 -0.209903 0)
(1.92648 -0.266014 0)
(2.05504 -0.304305 0)
(2.16746 -0.331427 0)
(2.26109 -0.343166 0)
(2.36113 -0.373411 0)
(2.40302 -0.366673 0)
(2.45086 -0.252003 0)
(2.39458 -0.00710255 0)
(2.33117 0.209277 0)
(2.31093 0.296191 0)
(2.32637 0.323852 0)
(2.35108 0.352488 0)
(2.36675 0.361022 0)
(2.36899 0.30867 0)
(2.31894 0.0847673 0)
(1.99434 0.815283 0)
(1.95249 0.883951 0)
(1.50601 0.222733 0)
(1.55864 -0.0639931 0)
(1.74777 -0.159924 0)
(1.91224 -0.212717 0)
(2.053 -0.247597 0)
(2.17147 -0.269214 0)
(2.27165 -0.281829 0)
(2.36849 -0.298642 0)
(2.43872 -0.315061 0)
(2.51805 -0.266083 0)
(2.4968 -0.126598 0)
(2.42883 0.148301 0)
(2.36075 0.324045 0)
(2.35066 0.365475 0)
(2.35243 0.394175 0)
(2.37279 0.350736 0)
(2.35326 0.243631 0)
(2.30308 0.0288633 0)
(2.15628 0.760686 0)
(1.91188 0.756544 0)
(1.29712 0.126906 0)
(1.50787 -0.0636686 0)
(1.73053 -0.125518 0)
(1.91787 -0.165928 0)
(2.06838 -0.191539 0)
(2.19446 -0.213658 0)
(2.29921 -0.224303 0)
(2.39116 -0.228573 0)
(2.48873 -0.257261 0)
(2.54802 -0.26148 0)
(2.56699 -0.167213 0)
(2.5172 0.0627017 0)
(2.46942 0.284689 0)
(2.41793 0.400556 0)
(2.38427 0.399502 0)
(2.36975 0.322763 0)
(2.32189 0.0967142 0)
(2.29971 -0.0647331 0)
(2.57153 0.566021 0)
(1.91064 0.637239 0)
(1.23525 0.0846613 0)
(1.51781 -0.0610686 0)
(1.76036 -0.0948836 0)
(1.95587 -0.124537 0)
(2.10802 -0.144044 0)
(2.23276 -0.159321 0)
(2.33707 -0.167981 0)
(2.42606 -0.164986 0)
(2.5103 -0.175082 0)
(2.58255 -0.190597 0)
(2.60948 -0.171775 0)
(2.61382 -0.015163 0)
(2.60253 0.210506 0)
(2.48222 0.412593 0)
(2.43086 0.38346 0)
(2.36236 0.216863 0)
(2.3364 0.0596917 0)
(2.33029 -0.0331246 0)
(2.88311 0.245063 0)
(1.9312 0.430313 0)
(1.2668 0.0277489 0)
(1.57143 -0.0684707 0)
(1.82024 -0.0727415 0)
(2.00746 -0.0808296 0)
(2.15171 -0.089441 0)
(2.26988 -0.0976771 0)
(2.37012 -0.10291 0)
(2.45764 -0.0984193 0)
(2.53236 -0.098124 0)
(2.61724 -0.126379 0)
(2.65037 -0.138604 0)
(2.72051 -0.0096565 0)
(2.68918 0.121649 0)
(2.57223 0.326494 0)
(2.46982 0.282347 0)
(2.3578 0.0469819 0)
(2.32305 -0.0332128 0)
(2.34227 -0.0473162 0)
(2.96457 0.047376 0)
(1.94776 0.213846 0)
(1.29525 0.0556908 0)
(1.62089 -0.0157318 0)
(1.86527 -0.0275362 0)
(2.04384 -0.0302265 0)
(2.18411 -0.0323197 0)
(2.30114 -0.0347695 0)
(2.40299 -0.0377734 0)
(2.48979 -0.0370504 0)
(2.56303 -0.0355156 0)
(2.63993 -0.0412555 0)
(2.70566 -0.0607675 0)
(2.75652 -0.0264748 0)
(2.73473 0.0130624 0)
(2.57894 0.107396 0)
(2.46401 0.173292 0)
(2.39893 0.0724084 0)
(2.3363 0.016518 0)
(2.34695 -0.00746411 0)
)
;

boundaryField
{
    inlet
    {
        type            fixedValue;
        value           uniform (3 0 0);
    }
    outlet
    {
        type            inletOutlet;
        inletValue      uniform (3 0 0);
        value           nonuniform List<vector> 
20
(
(2.15938 0.0124094 0)
(2.17525 0.0302546 0)
(2.20105 0.0440057 0)
(2.23117 0.0707096 0)
(2.26558 0.0901007 0)
(2.2961 0.119405 0)
(2.32521 0.142382 0)
(2.34407 0.17716 0)
(2.37127 0.199835 0)
(2.38775 0.231138 0)
(2.40668 0.245981 0)
(2.40807 0.258671 0)
(2.39426 0.240361 0)
(2.36098 0.184524 0)
(2.31894 0.0847673 0)
(2.30308 0.0288633 0)
(2.29971 -0.0647331 0)
(2.33029 -0.0331246 0)
(2.34227 -0.0473162 0)
(2.34695 -0.00746411 0)
)
;
    }
    bottom
    {
        type            symmetryPlane;
    }
    top
    {
        type            symmetryPlane;
    }
    obstacle
    {
        type            slip;
    }
    defaultFaces
    {
        type            empty;
    }
}


// ************************************************************************* //
