/*--------------------------------*- C++ -*----------------------------------*\
  =========                 |
  \\      /  F ield         | OpenFOAM: The Open Source CFD Toolbox
   \\    /   O peration     | Website:  https://openfoam.org
    \\  /    A nd           | Version:  6.0
     \\/     M anipulation  |
\*---------------------------------------------------------------------------*/
FoamFile
{
    version     2.0;
    format      ascii;
    class       volScalarField;
    location    "3";
    object      p;
}
// * * * * * * * * * * * * * * * * * * * * * * * * * * * * * * * * * * * * * //

dimensions      [1 -1 -2 0 0 0 0];

internalField   nonuniform List<scalar> 
1200
(
1
1
1
1
1
1
1
1
1
1
4.59521
10.3393
10.7517
10.9627
11.1966
11.3992
11.5829
11.7336
11.8523
11.943
1
1
1
1
1
1
1
1
1
1
4.57671
10.3247
10.7489
10.9594
11.1925
11.3939
11.5761
11.7252
11.8419
11.9317
1
1
1
1
1
1
1
1
1
1
4.53474
10.3047
10.7406
10.9507
11.1835
11.3839
11.5646
11.7119
11.8257
11.9144
1
1
1
1
1
1
1
1
1
1
4.46891
10.277
10.73
10.9391
11.1709
11.3693
11.5475
11.6921
11.8018
11.888
1
1
1
1
1
1
1
1
1
1
4.38089
10.2396
10.716
10.924
11.1545
11.3504
11.5254
11.6665
11.771
11.8554
1
1
1
1
1
1
1
1
1
1
4.27236
10.1903
10.6981
10.9047
11.1336
11.3268
11.4982
11.6358
11.7344
11.8148
1
1
1
1
1
1
1
1
1
1
4.14457
10.1277
10.6766
10.881
11.1078
11.2975
11.4642
11.597
11.6896
11.7693
1
1
1
1
1
1
1
1
1
1
3.99817
10.0514
10.6516
10.853
11.0767
11.2627
11.4253
11.5537
11.6393
11.7128
1
1
1
1
1
1
1
1
1
1
3.83339
9.96063
10.624
10.8215
11.0408
11.2215
11.3778
11.4995
11.5784
11.6514
1
1
1
1
1
1
1
1
1
1
3.65119
9.85364
10.5936
10.7864
10.9998
11.1746
11.3246
11.44
11.5109
11.5757
1
1
1
1
1
1
1
1
1
1
3.45314
9.72906
10.5613
10.7482
10.9536
11.1202
11.2609
11.367
11.4296
11.4932
1
1
1
1
1
1
1
1
1
1
3.24109
9.58509
10.5285
10.7089
10.9048
11.0615
11.1914
11.2873
11.339
11.3899
1
1
1
1
1
1
1
1
1
1
3.01716
9.41625
10.4933
10.6659
10.8513
10.9963
11.1118
11.1923
11.2287
11.2768
1
1
1
1
1
1
1
1
1
1
2.78295
9.21906
10.4594
10.6239
10.7977
10.9292
11.0279
11.0916
11.1086
11.1333
1
1
1
1
1
1
1
1
1
1
2.54274
8.98697
10.4232
10.5758
10.7369
10.8538
10.933
10.972
10.9561
10.9707
1
1
1
1
1
1
1
1
1
1
2.29903
8.71701
10.3838
10.5202
10.6683
10.7716
10.831
10.8468
10.7914
10.7564
1
1
1
1
1
1
1
1
1
1
2.03919
8.42319
10.3606
10.4731
10.6014
10.6858
10.7215
10.696
10.5723
10.4961
1
1
1
1
1
1
1
1
1
1
1.77484
8.09987
10.3503
10.4257
10.5362
10.6014
10.6042
10.5368
10.3397
10.1401
1
1
1
1
1
1
1
1
1
1
1.46611
7.79751
10.3237
10.3635
10.464
10.5133
10.4813
10.3588
10.0382
9.62957
1
1
1
1
1
1
1
1
1
1
1.16075
7.40056
10.3152
10.2957
10.3828
10.4184
10.3533
10.1699
9.78311
9.20743
1
1
1
1
1
1
1
1
1
1
1.01011
6.00672
9.90758
10.0536
10.1296
10.1435
10.0111
9.6865
9.08159
7.22366
1
1
1
1
1
1
1
1
1
1
1.00001
3.53427
9.17829
9.82984
9.80473
9.73189
9.46635
8.95875
8.23198
6.61784
1
1
1
1
1
1
1
1
1
1
1
1.47563
7.57511
9.62065
9.45972
9.30712
8.96157
8.4441
7.62308
6.26724
1
1
1
1
1
1
1
1
1
1
1
1.0146
4.86341
9.00057
9.03391
8.87173
8.51125
8.03199
7.20209
6.19252
1
1
1
1
1
1
1
1
1
1
1
0.999969
1.74823
7.47841
8.91985
8.56068
8.20439
7.71288
7.01001
6.2079
1
1
1
1
1
1
1
1
1
1
1
0.999993
1.03039
4.51314
8.28672
8.21073
7.87673
7.44087
6.87323
6.22661
1
1
1
1
1
1
1
1
1
1
1
0.999999
1.00004
1.53362
6.24906
8.09193
7.7424
7.3245
6.80875
6.25905
1
1
1
1
1
1
1
1
1
1
1
1
1
1.01495
2.5721
7.04309
7.68303
7.22792
6.75932
6.28635
1
1
1
1
1
1
1
1
1
1
1
1
1
1.00005
1.12109
4.10517
7.28867
7.16695
6.73877
6.32708
1
1
1
1
1
1
1
1
1
1
1
1
1
1
1.00114
1.46677
4.90624
7.02573
6.77063
6.37844
1
1
1
1
1
1
1
1
1
1
1
1
1
1
1
1.01235
1.8376
5.26897
6.67632
6.44625
1
1
1
1
1
1
1
1
1
1
1
1
1
1
1
1.00006
1.037
2.16162
5.31951
6.35227
1
1
1
1
1
1
1
1
1
1
1
1
1
1
1
1
1.00027
1.07086
2.34204
5.30289
1
1
1
1
1
1
1
1
1
1
1
1
1
1
1
1
1
1.00078
1.0943
2.74221
1
1
1
1
1
1
1
1
1
1
1
1
1
1
1
1
1
1
1.00102
1.17543
1
1
1
1
1
1
1
1
1
1
1
1
1
1
1
1
1
1
1
1.00227
1
1
1
1
1
1
1
1
1
1
1
1
1
1
1
1
1
1
1
1
1
1
1
1
1
1
1
1
1
1
1
1
1
1
1
1
1
1
1
1
1
1
1
1
1
1
1
1
1
1
1
1
1
1
1
1
1
1
1
1
1
1
1
1
1
1
1
1
1
1
1
1
1
1
1
1
1
1
1
1
1.29097
0.755803
1.02078
1.30299
1.35497
1.32009
2.14115
4.85403
5.50042
5.35484
4.9987
4.60863
4.24936
3.90845
3.60361
3.32012
3.05684
2.8162
2.61861
2.32243
2.87688
1.10723
1.1179
1.22013
1.29317
1.30349
2.11837
4.79342
5.48199
5.30078
4.93991
4.5717
4.21569
3.89972
3.59354
3.31023
3.0514
2.81469
2.61899
2.32312
3.52104
1.47862
1.15316
1.16775
1.27007
1.33085
2.11351
4.76195
5.49177
5.30214
4.95332
4.56767
4.20769
3.88582
3.57765
3.3011
3.04779
2.81317
2.61826
2.32299
3.97245
2.00882
1.38084
1.16678
1.20538
1.32708
2.17169
4.21725
5.53486
5.25363
4.89754
4.53037
4.17687
3.86525
3.57065
3.29751
3.04235
2.80587
2.6104
2.3169
4.32498
2.43779
1.65825
1.19667
1.20416
1.41752
2.36886
3.48252
5.06728
5.30074
4.84064
4.49265
4.16856
3.85879
3.55789
3.27868
3.02222
2.78724
2.59563
2.30623
4.5652
2.82886
1.9973
1.34566
1.25661
1.68062
2.69635
2.98503
4.23593
5.06984
4.80736
4.46827
4.14278
3.83118
3.53333
3.25838
3.00568
2.77336
2.5844
2.29783
4.70869
3.20193
2.30828
1.53962
1.34272
2.08525
3.04989
3.00351
3.33208
4.52627
4.76023
4.43378
4.10859
3.80268
3.51115
3.23883
2.98693
2.75505
2.56849
2.28671
4.81481
3.53584
2.56675
1.73844
1.61113
2.58578
3.21141
3.03289
2.85507
3.66715
4.49636
4.36879
4.05836
3.75861
3.47611
3.21216
2.96575
2.73645
2.55305
2.27506
4.92624
3.84515
2.75838
1.9661
2.13576
3.2043
3.2759
3.0466
2.75498
2.90331
3.8566
4.22527
4.00345
3.72525
3.44311
3.18228
2.94024
2.71619
2.53687
2.26246
5.06247
4.10793
2.90245
2.22258
2.94105
3.72533
3.4318
3.07841
2.71134
2.54062
3.02733
3.86776
3.93766
3.69062
3.40851
3.14739
2.90892
2.69202
2.5168
2.24459
5.25073
4.30175
3.03911
2.61045
3.96733
4.09443
3.63564
3.14857
2.73463
2.45112
2.44754
3.17452
3.73241
3.60501
3.35061
3.09773
2.8688
2.66489
2.49669
2.22784
5.49118
4.42633
3.21517
3.31577
4.88111
4.42656
3.78704
3.22304
2.78927
2.41585
2.22627
2.46756
3.26773
3.46224
3.28629
3.06287
2.83746
2.63406
2.45986
2.19844
5.67123
4.56124
3.47703
4.46885
5.58495
4.78685
3.95756
3.3182
2.85943
2.45585
2.17986
2.08335
2.58357
3.20665
3.20388
3.02808
2.80914
2.60604
2.42132
2.17259
5.50168
4.79358
3.92341
5.9223
5.98711
5.07781
4.13029
3.41485
2.91148
2.50901
2.15765
1.9705
2.06187
2.65821
3.0141
2.9368
2.76124
2.56644
2.36811
2.15923
5.02558
4.63724
4.90937
7.32925
6.31413
5.23977
4.27627
3.52584
2.97536
2.56871
2.19777
1.92662
1.81152
2.08094
2.71098
2.83555
2.70633
2.51772
2.33064
2.18243
4.12406
4.31976
6.49313
8.28661
6.60536
5.36885
4.39311
3.6282
3.03968
2.60678
2.2451
1.9171
1.73903
1.7202
2.15961
2.62648
2.62447
2.45912
2.30573
2.31676
2.90071
4.19003
8.25266
8.7039
6.81528
5.47462
4.48482
3.71547
3.10774
2.64394
2.28347
1.95594
1.69367
1.57463
1.69696
2.20859
2.44975
2.37972
2.31188
2.63419
1.8166
4.67624
10.3377
9.11863
7.01555
5.57733
4.55903
3.78371
3.16686
2.67912
2.29788
1.98136
1.6905
1.52174
1.45161
1.71207
2.21657
2.31531
2.47483
3.15119
1.21932
4.9385
11.7139
9.21447
7.09909
5.62635
4.59346
3.81625
3.19981
2.70097
2.3009
1.99382
1.7249
1.48802
1.35857
1.42515
1.82307
2.31157
2.92439
3.49205
1.03245
5.30816
13.2766
9.56947
7.13534
5.62634
4.60123
3.83136
3.21998
2.72131
2.30684
1.99225
1.74763
1.4965
1.28738
1.27344
1.53462
2.43468
3.58311
3.94298
)
;

boundaryField
{
    inlet
    {
        type            fixedValue;
        value           uniform 1;
    }
    outlet
    {
        type            zeroGradient;
    }
    bottom
    {
        type            symmetryPlane;
    }
    top
    {
        type            symmetryPlane;
    }
    obstacle
    {
        type            zeroGradient;
    }
    defaultFaces
    {
        type            empty;
    }
}


// ************************************************************************* //
