/*--------------------------------*- C++ -*----------------------------------*\
  =========                 |
  \\      /  F ield         | OpenFOAM: The Open Source CFD Toolbox
   \\    /   O peration     | Website:  https://openfoam.org
    \\  /    A nd           | Version:  6.0
     \\/     M anipulation  |
\*---------------------------------------------------------------------------*/
FoamFile
{
    version     2.0;
    format      ascii;
    class       volScalarField;
    location    "3";
    object      rho;
}
// * * * * * * * * * * * * * * * * * * * * * * * * * * * * * * * * * * * * * //

dimensions      [1 -3 0 0 0 0 0];

internalField   nonuniform List<scalar> 
1200
(
1.39997
1.39997
1.39997
1.39997
1.39997
1.39997
1.39997
1.39997
1.39997
1.39997
3.1751
5.33768
5.49002
5.57275
5.66399
5.74115
5.80629
5.85476
5.89111
5.92082
1.39997
1.39997
1.39997
1.39997
1.39997
1.39997
1.39997
1.39997
1.39997
1.39997
3.16405
5.33014
5.48855
5.57139
5.66247
5.73921
5.80383
5.85175
5.88743
5.91681
1.39997
1.39997
1.39997
1.39997
1.39997
1.39997
1.39997
1.39997
1.39997
1.39997
3.1426
5.31917
5.48429
5.56772
5.65895
5.73544
5.79954
5.84687
5.88165
5.9107
1.39997
1.39997
1.39997
1.39997
1.39997
1.39997
1.39997
1.39997
1.39997
1.39997
3.11298
5.30667
5.47875
5.56247
5.65376
5.72976
5.79308
5.83962
5.87307
5.90131
1.39997
1.39997
1.39997
1.39997
1.39997
1.39997
1.39997
1.39997
1.39997
1.39997
3.07537
5.29394
5.47222
5.55573
5.64687
5.72225
5.78461
5.83016
5.86196
5.88968
1.39997
1.39997
1.39997
1.39997
1.39997
1.39997
1.39997
1.39997
1.39997
1.39997
3.02904
5.28033
5.46537
5.54779
5.6383
5.71282
5.77419
5.81877
5.84873
5.87518
1.39997
1.39997
1.39997
1.39997
1.39997
1.39997
1.39997
1.39997
1.39997
1.39997
2.97354
5.26389
5.45874
5.53914
5.62825
5.70137
5.76123
5.8044
5.8325
5.85884
1.39997
1.39997
1.39997
1.39997
1.39997
1.39997
1.39997
1.39997
1.39997
1.39997
2.90885
5.2431
5.45234
5.53002
5.61689
5.68816
5.7465
5.78835
5.81425
5.83856
1.39997
1.39997
1.39997
1.39997
1.39997
1.39997
1.39997
1.39997
1.39997
1.39997
2.83513
5.21698
5.44595
5.52068
5.60461
5.67311
5.72883
5.76841
5.79213
5.81644
1.39997
1.39997
1.39997
1.39997
1.39997
1.39997
1.39997
1.39997
1.39997
1.39997
2.75264
5.18462
5.43893
5.51067
5.59123
5.65654
5.7094
5.74662
5.76764
5.78913
1.39997
1.39997
1.39997
1.39997
1.39997
1.39997
1.39997
1.39997
1.39997
1.39997
2.6618
5.14563
5.4312
5.49988
5.57655
5.63783
5.68659
5.72016
5.73815
5.7593
1.39997
1.39997
1.39997
1.39997
1.39997
1.39997
1.39997
1.39997
1.39997
1.39997
2.56351
5.10005
5.4232
5.48877
5.56129
5.61813
5.66219
5.69152
5.70531
5.72189
1.39997
1.39997
1.39997
1.39997
1.39997
1.39997
1.39997
1.39997
1.39997
1.39997
2.45888
5.04651
5.41405
5.47618
5.54449
5.59653
5.63463
5.65764
5.66532
5.68073
1.39997
1.39997
1.39997
1.39997
1.39997
1.39997
1.39997
1.39997
1.39997
1.39997
2.34758
4.98307
5.40463
5.46359
5.52778
5.57466
5.60591
5.62187
5.62174
5.62846
1.39997
1.39997
1.39997
1.39997
1.39997
1.39997
1.39997
1.39997
1.39997
1.39997
2.2312
4.90539
5.3935
5.44851
5.50853
5.55007
5.57297
5.5789
5.56677
5.56931
1.39997
1.39997
1.39997
1.39997
1.39997
1.39997
1.39997
1.39997
1.39997
1.39997
2.11078
4.81161
5.38276
5.43088
5.48637
5.52293
5.53735
5.53407
5.50733
5.49083
1.39997
1.39997
1.39997
1.39997
1.39997
1.39997
1.39997
1.39997
1.39997
1.39997
1.97822
4.71455
5.38334
5.41766
5.46459
5.49384
5.49925
5.48091
5.42759
5.39566
1.39997
1.39997
1.39997
1.39997
1.39997
1.39997
1.39997
1.39997
1.39997
1.39997
1.85679
4.63432
5.39871
5.40737
5.4434
5.46478
5.45872
5.42516
5.3438
5.26983
1.39997
1.39997
1.39997
1.39997
1.39997
1.39997
1.39997
1.39997
1.39997
1.39997
1.7101
4.58396
5.41813
5.39722
5.42159
5.43463
5.41684
5.36183
5.2336
5.08457
1.39997
1.39997
1.39997
1.39997
1.39997
1.39997
1.39997
1.39997
1.39997
1.39997
1.52991
4.45217
5.43853
5.38874
5.40018
5.40314
5.37359
5.29454
5.13058
4.8777
1.39997
1.39997
1.39997
1.39997
1.39997
1.39997
1.39997
1.39997
1.39997
1.39997
1.40881
3.83218
5.303
5.32109
5.32956
5.32029
5.26211
5.12612
4.85757
3.95681
1.39997
1.39997
1.39997
1.39997
1.39997
1.39997
1.39997
1.39997
1.39997
1.39997
1.39998
2.74392
5.0655
5.2652
5.24283
5.20143
5.08469
4.87141
4.55289
3.81259
1.39997
1.39997
1.39997
1.39997
1.39997
1.39997
1.39997
1.39997
1.39997
1.39997
1.39997
1.71572
4.53918
5.22293
5.14477
5.06908
4.91698
4.69601
4.34334
3.74228
1.39997
1.39997
1.39997
1.39997
1.39997
1.39997
1.39997
1.39997
1.39997
1.39997
1.39997
1.41139
3.37283
5.02626
4.99941
4.92333
4.76524
4.55761
4.2006
3.75428
1.39997
1.39997
1.39997
1.39997
1.39997
1.39997
1.39997
1.39997
1.39997
1.39997
1.39997
1.39993
1.88388
4.57159
5.00959
4.84544
4.67782
4.45641
4.14741
3.7881
1.39997
1.39997
1.39997
1.39997
1.39997
1.39997
1.39997
1.39997
1.39997
1.39997
1.39997
1.39996
1.4242
3.27149
4.81275
4.75005
4.58582
4.3798
4.12055
3.8242
1.39997
1.39997
1.39997
1.39997
1.39997
1.39997
1.39997
1.39997
1.39997
1.39997
1.39997
1.39997
1.39999
1.76481
4.08155
4.75932
4.59265
4.38838
4.14053
3.87716
1.39997
1.39997
1.39997
1.39997
1.39997
1.39997
1.39997
1.39997
1.39997
1.39997
1.39997
1.39997
1.39997
1.41222
2.37476
4.49516
4.62378
4.4093
4.17773
3.94121
1.39997
1.39997
1.39997
1.39997
1.39997
1.39997
1.39997
1.39997
1.39997
1.39997
1.39997
1.39997
1.39997
1.40002
1.49506
3.17903
4.53649
4.45732
4.23464
4.02007
1.39997
1.39997
1.39997
1.39997
1.39997
1.39997
1.39997
1.39997
1.39997
1.39997
1.39997
1.39997
1.39997
1.39997
1.40098
1.73442
3.57363
4.45349
4.31756
4.11095
1.39997
1.39997
1.39997
1.39997
1.39997
1.39997
1.39997
1.39997
1.39997
1.39997
1.39997
1.39997
1.39997
1.39997
1.39997
1.41046
1.97507
3.78071
4.33628
4.21112
1.39997
1.39997
1.39997
1.39997
1.39997
1.39997
1.39997
1.39997
1.39997
1.39997
1.39997
1.39997
1.39997
1.39997
1.39997
1.40002
1.43103
2.18
3.83805
4.22759
1.39997
1.39997
1.39997
1.39997
1.39997
1.39997
1.39997
1.39997
1.39997
1.39997
1.39997
1.39997
1.39997
1.39997
1.39997
1.39997
1.40022
1.45864
2.30453
3.83522
1.39997
1.39997
1.39997
1.39997
1.39997
1.39997
1.39997
1.39997
1.39997
1.39997
1.39997
1.39997
1.39997
1.39997
1.39997
1.39997
1.39997
1.40071
1.47765
2.5011
1.39997
1.39997
1.39997
1.39997
1.39997
1.39997
1.39997
1.39997
1.39997
1.39997
1.39997
1.39997
1.39997
1.39997
1.39997
1.39997
1.39997
1.39997
1.40091
1.53635
1.39997
1.39997
1.39997
1.39997
1.39997
1.39997
1.39997
1.39997
1.39997
1.39997
1.39997
1.39997
1.39997
1.39997
1.39997
1.39997
1.39997
1.39997
1.39997
1.40195
1.39997
1.39997
1.39997
1.39997
1.39997
1.39997
1.39997
1.39997
1.39997
1.39997
1.39997
1.39997
1.39997
1.39997
1.39997
1.39997
1.39997
1.39997
1.39997
1.39997
1.39997
1.39997
1.39997
1.39997
1.39997
1.39997
1.39997
1.39997
1.39997
1.39997
1.39997
1.39997
1.39997
1.39997
1.39997
1.39997
1.39997
1.39997
1.39997
1.39997
1.39997
1.39997
1.39997
1.39997
1.39997
1.39997
1.39997
1.39997
1.39997
1.39997
1.39997
1.39997
1.39997
1.39997
1.39997
1.39997
1.39997
1.39997
1.39997
1.39997
1.39997
1.39997
1.39997
1.39997
1.39997
1.39997
1.39997
1.39997
1.39997
1.39997
1.39997
1.39997
1.39997
1.39997
1.39997
1.39997
1.39997
1.39997
1.39997
1.39997
1.02571
0.64179
0.806136
0.971218
1.015
1.00508
1.37577
2.45229
2.80207
2.7731
2.66572
2.53779
2.41548
2.29571
2.18639
2.08007
1.97435
1.86924
1.77562
1.62352
1.93855
0.896211
0.909063
0.967092
1.00994
1.01928
1.4215
2.51006
2.8592
2.80852
2.68956
2.56037
2.43165
2.3159
2.20043
2.08964
1.98275
1.87754
1.7838
1.63057
2.40274
1.21118
0.995709
1.00429
1.06254
1.0964
1.53151
2.68312
3.02362
2.95519
2.81725
2.65846
2.51012
2.37694
2.24702
2.12787
2.01507
1.90527
1.80877
1.65197
2.70088
1.61194
1.20156
1.06215
1.08644
1.16097
1.64496
2.64817
3.21835
3.10107
2.94196
2.77177
2.60792
2.46285
2.32389
2.19289
2.0682
1.9494
1.84769
1.68589
2.91173
1.90985
1.42769
1.11971
1.12405
1.26263
1.80439
2.40481
3.14378
3.23122
3.0263
2.86053
2.70211
2.54876
2.3976
2.25463
2.12073
1.99541
1.89077
1.72534
3.04962
2.15411
1.66574
1.24718
1.17992
1.44959
2.0139
2.1853
2.81581
3.1971
3.07611
2.91611
2.75676
2.60011
2.44709
2.30252
2.16645
2.03837
1.93196
1.76418
3.14559
2.37439
1.86613
1.39362
1.2545
1.68832
2.2251
2.21685
2.39934
2.99035
3.0997
2.94462
2.78476
2.63009
2.47917
2.33462
2.19742
2.06787
1.96125
1.79405
3.22618
2.56742
2.02752
1.53064
1.44181
1.97013
2.33105
2.25201
2.1834
2.60668
3.01922
2.95365
2.7963
2.64221
2.49437
2.35263
2.21695
2.08773
1.98203
1.8157
3.31903
2.74879
2.14993
1.67692
1.76716
2.32023
2.38672
2.28591
2.15294
2.24366
2.74846
2.92371
2.80446
2.65812
2.50778
2.36492
2.2293
2.10138
1.99698
1.83125
3.43398
2.91488
2.25026
1.84023
2.20666
2.6236
2.49365
2.33137
2.14712
2.06998
2.34705
2.78821
2.80496
2.67416
2.5205
2.37389
2.23725
2.11116
2.00768
1.84104
3.58135
3.0567
2.35366
2.08353
2.7424
2.84652
2.63663
2.39996
2.18522
2.03371
2.04493
2.45216
2.73896
2.66565
2.52194
2.37568
2.24113
2.11987
2.01843
1.85085
3.76114
3.16856
2.47616
2.51222
3.25359
3.05175
2.75038
2.46747
2.23859
2.0279
1.92727
2.07531
2.52734
2.62531
2.5211
2.38774
2.25229
2.12848
2.02084
1.85379
3.911
3.30402
2.656
3.13376
3.65038
3.27527
2.87116
2.54345
2.29782
2.06992
1.91159
1.86403
2.16769
2.5276
2.50781
2.40155
2.26847
2.14163
2.02436
1.86096
3.86667
3.47695
2.94549
3.85058
3.88143
3.45456
2.98871
2.61893
2.34704
2.12159
1.91415
1.80922
1.87435
2.24825
2.44102
2.38821
2.27617
2.1505
2.02089
1.87872
3.60904
3.39735
3.5035
4.5206
4.06283
3.56237
3.09007
2.70275
2.40587
2.17889
1.96132
1.79678
1.73506
1.91728
2.30499
2.36633
2.28096
2.15498
2.02949
1.91922
3.10839
3.22161
4.23169
4.97059
4.2305
3.65678
3.18093
2.78798
2.47098
2.22779
2.01569
1.81071
1.69886
1.69789
1.98907
2.28126
2.26358
2.15132
2.04623
2.02984
2.51227
3.19929
4.91814
5.18717
4.37034
3.7539
3.27111
2.87401
2.54323
2.27798
2.0625
1.85562
1.68095
1.60505
1.69289
2.03943
2.1835
2.13424
2.07718
2.25557
2.01169
3.56162
5.85646
5.4172
4.52818
3.86307
3.35809
2.94998
2.60725
2.32198
2.08841
1.88589
1.68812
1.57137
1.52455
1.71186
2.05062
2.11585
2.2075
2.59343
1.60632
3.81791
6.63671
5.58095
4.63948
3.93689
3.41145
2.99328
2.6443
2.34804
2.09912
1.90014
1.71782
1.54985
1.4566
1.50886
1.79535
2.12581
2.51578
2.83685
1.43284
4.0362
7.37331
5.80751
4.69575
3.95851
3.42873
3.01028
2.66176
2.36441
2.10544
1.90043
1.7357
1.55769
1.39924
1.39647
1.5933
2.20731
2.91668
3.10655
)
;

boundaryField
{
    inlet
    {
        type            calculated;
        value           uniform 1.39997;
    }
    outlet
    {
        type            calculated;
        value           nonuniform List<scalar> 
20
(
1.62337
1.63044
1.65187
1.68583
1.72533
1.76421
1.79407
1.81572
1.83127
1.84109
1.85093
1.85387
1.86103
1.87885
1.91947
2.03023
2.25628
2.59415
2.83724
3.10679
)
;
    }
    bottom
    {
        type            symmetryPlane;
    }
    top
    {
        type            symmetryPlane;
    }
    obstacle
    {
        type            calculated;
        value           nonuniform List<scalar> 
40
(
5.92082
5.91681
5.9107
5.90131
5.88968
5.87518
5.85884
5.83856
5.81644
5.78913
5.7593
5.72189
5.68073
5.62846
5.56931
5.49083
5.39566
5.26983
5.08457
4.8777
1.02571
0.64179
0.806136
0.971218
1.015
1.00508
1.37577
2.45229
2.80207
2.7731
2.66572
2.53779
2.41548
2.29571
2.18639
2.08007
1.97435
1.86924
1.77562
1.62352
)
;
    }
    defaultFaces
    {
        type            empty;
    }
}


// ************************************************************************* //
