/*--------------------------------*- C++ -*----------------------------------*\
  =========                 |
  \\      /  F ield         | OpenFOAM: The Open Source CFD Toolbox
   \\    /   O peration     | Website:  https://openfoam.org
    \\  /    A nd           | Version:  6.0
     \\/     M anipulation  |
\*---------------------------------------------------------------------------*/
FoamFile
{
    version     2.0;
    format      ascii;
    class       volScalarField;
    location    "3";
    object      T;
}
// * * * * * * * * * * * * * * * * * * * * * * * * * * * * * * * * * * * * * //

dimensions      [0 0 0 1 0 0 0];

internalField   nonuniform List<scalar> 
1200
(
1
1
1
1
1
1
1
1
1
1
2.02612
2.7118
2.7417
2.75403
2.76747
2.77967
2.79278
2.80569
2.81658
2.8239
1
1
1
1
1
1
1
1
1
1
2.02501
2.71178
2.74174
2.75384
2.76719
2.77931
2.79233
2.80513
2.81588
2.82313
1
1
1
1
1
1
1
1
1
1
2.02014
2.71213
2.74174
2.75349
2.76668
2.7787
2.79162
2.80427
2.81479
2.82197
1
1
1
1
1
1
1
1
1
1
2.00976
2.71122
2.7418
2.75317
2.7661
2.7779
2.7906
2.80303
2.81321
2.82018
1
1
1
1
1
1
1
1
1
1
1.99427
2.70784
2.74149
2.75269
2.7654
2.77693
2.78932
2.80143
2.81118
2.818
1
1
1
1
1
1
1
1
1
1
1.97461
2.70175
2.74035
2.75176
2.76443
2.77571
2.78778
2.79953
2.80878
2.81529
1
1
1
1
1
1
1
1
1
1
1.95131
2.69353
2.73815
2.75008
2.76296
2.7741
2.78579
2.7971
2.80584
2.81226
1
1
1
1
1
1
1
1
1
1
1.92424
2.68384
2.73496
2.74752
2.76078
2.77197
2.78345
2.79438
2.80254
2.8085
1
1
1
1
1
1
1
1
1
1
1.8929
2.67292
2.73108
2.74419
2.75786
2.76917
2.78041
2.79088
2.79851
2.8044
1
1
1
1
1
1
1
1
1
1
1.85696
2.66072
2.72678
2.74025
2.7542
2.76567
2.77683
2.78696
2.79402
2.79932
1
1
1
1
1
1
1
1
1
1
1.81617
2.64698
2.72232
2.7359
2.74986
2.76133
2.77229
2.782
2.78854
2.79377
1
1
1
1
1
1
1
1
1
1
1.77001
2.63112
2.71786
2.73142
2.74512
2.7564
2.76707
2.7764
2.78237
2.78676
1
1
1
1
1
1
1
1
1
1
1.71783
2.61219
2.71335
2.72672
2.73992
2.75072
2.76081
2.7695
2.77475
2.77909
1
1
1
1
1
1
1
1
1
1
1.6596
2.59005
2.7093
2.72221
2.73463
2.74466
2.75401
2.76205
2.76636
2.7692
1
1
1
1
1
1
1
1
1
1
1.59544
2.56483
2.70552
2.7174
2.72874
2.73781
2.74644
2.75331
2.75532
2.75772
1
1
1
1
1
1
1
1
1
1
1.52483
2.53627
2.70065
2.71188
2.72225
2.73042
2.73833
2.74394
2.74318
2.74249
1
1
1
1
1
1
1
1
1
1
1.44311
2.50124
2.69433
2.70633
2.71596
2.72301
2.72942
2.73203
2.72697
2.72334
1
1
1
1
1
1
1
1
1
1
1.33818
2.44687
2.68398
2.69923
2.70977
2.71586
2.71959
2.71903
2.70879
2.6938
1
1
1
1
1
1
1
1
1
1
1.20023
2.38141
2.66749
2.68816
2.70203
2.70825
2.70886
2.70468
2.68517
2.65138
1
1
1
1
1
1
1
1
1
1
1.06216
2.32708
2.65529
2.67476
2.69169
2.69945
2.69733
2.68911
2.66949
2.64266
1
1
1
1
1
1
1
1
1
1
1.00377
2.19437
2.61555
2.64508
2.66085
2.66913
2.66341
2.64543
2.61735
2.55582
1
1
1
1
1
1
1
1
1
1
1.00001
1.80321
2.53664
2.61366
2.61811
2.61934
2.60637
2.57461
2.53125
2.43005
1
1
1
1
1
1
1
1
1
1
1
1.20407
2.33631
2.57875
2.57413
2.57042
2.55155
2.51735
2.45711
2.34454
1
1
1
1
1
1
1
1
1
1
1
1.00639
2.01867
2.50694
2.52973
2.52271
2.5005
2.4672
2.4003
2.30919
1
1
1
1
1
1
1
1
1
1
1
0.999998
1.29916
2.29013
2.49272
2.4734
2.4554
2.42298
2.36625
2.29426
1
1
1
1
1
1
1
1
1
1
1
0.999999
1.01286
1.9313
2.4105
2.41992
2.40463
2.37841
2.3352
2.27945
1
1
1
1
1
1
1
1
1
1
1
1
1.00002
1.21657
2.14342
2.38027
2.3601
2.33664
2.30213
2.26002
1
1
1
1
1
1
1
1
1
1
1
1
1
1.00614
1.51631
2.1935
2.32623
2.29489
2.26506
2.233
1
1
1
1
1
1
1
1
1
1
1
1
1
1.00002
1.04979
1.80782
2.2493
2.25102
2.22783
2.20337
1
1
1
1
1
1
1
1
1
1
1
1
1
1
1.00042
1.18393
1.92202
2.20856
2.19538
2.17216
1
1
1
1
1
1
1
1
1
1
1
1
1
1
1
1.00482
1.30253
1.95106
2.15545
2.14303
1
1
1
1
1
1
1
1
1
1
1
1
1
1
1
1.00002
1.01449
1.38816
1.94035
2.10356
1
1
1
1
1
1
1
1
1
1
1
1
1
1
1
1
1.00009
1.02779
1.42276
1.93571
1
1
1
1
1
1
1
1
1
1
1
1
1
1
1
1
1
1.00025
1.03677
1.53493
1
1
1
1
1
1
1
1
1
1
1
1
1
1
1
1
1
1
1.00035
1.07109
1
1
1
1
1
1
1
1
1
1
1
1
1
1
1
1
1
1
1
1.00085
1
1
1
1
1
1
1
1
1
1
1
1
1
1
1
1
1
1
1
1
1
1
1
1
1
1
1
1
1
1
1
1
1
1
1
1
1
1
1
1
1
1
1
1
1
1
1
1
1
1
1
1
1
1
1
1
1
1
1
1
1
1
1
1
1
1
1
1
1
1
1
1
1
1
1
1
1
1
1
1
1.76201
1.64867
1.77273
1.8782
1.86888
1.83875
2.17882
2.77108
2.74811
2.70333
2.62519
2.54235
2.46285
2.38345
2.30743
2.23458
2.16753
2.10919
2.06462
2.00264
2.07761
1.7296
1.72157
1.76627
1.79257
1.79033
2.08628
2.67349
2.68418
2.64229
2.57132
2.49973
2.42709
2.3574
2.2863
2.21771
2.15451
2.09875
2.05544
1.99458
2.05155
1.7091
1.62135
1.62783
1.6734
1.69933
1.93199
2.48464
2.54275
2.51179
2.46144
2.40537
2.34675
2.28867
2.229
2.17186
2.11746
2.06709
2.02651
1.96863
2.05907
1.74466
1.60886
1.53788
1.55323
1.60027
1.84826
2.22947
2.40764
2.37174
2.33056
2.2882
2.24221
2.19714
2.15105
2.10517
2.05937
2.01505
1.97786
1.92396
2.07946
1.78697
1.62605
1.49618
1.49975
1.57171
1.83792
2.02736
2.25653
2.29662
2.23929
2.19874
2.15973
2.11953
2.07747
2.03583
1.99507
1.95552
1.92186
1.87131
2.09572
1.8385
1.67863
1.51052
1.49096
1.62309
1.87438
1.9123
2.10602
2.22002
2.18788
2.14513
2.10383
2.06281
2.0214
1.98115
1.94229
1.90477
1.87275
1.82344
2.09564
1.88789
1.73167
1.54663
1.49843
1.72911
1.9189
1.89675
1.9442
2.11903
2.14994
2.10796
2.0655
2.02413
1.98272
1.94218
1.90296
1.86519
1.83342
1.78441
2.08934
1.92803
1.7723
1.59003
1.56437
1.83745
1.92869
1.8854
1.83064
1.96951
2.0849
2.07072
2.03182
1.9915
1.95097
1.91145
1.87282
1.83498
1.80329
1.75415
2.07789
1.95835
1.79618
1.64139
1.69199
1.93339
1.92153
1.86584
1.79145
1.81157
1.96441
2.0232
1.9985
1.962
1.92212
1.88382
1.84643
1.80957
1.77845
1.72963
2.06387
1.97297
1.80572
1.69084
1.86589
1.98785
1.92666
1.84856
1.76786
1.71827
1.80575
1.94202
1.9653
1.9321
1.89319
1.85613
1.82027
1.78515
1.75497
1.70684
2.05254
1.9702
1.80768
1.75402
2.02529
2.01371
1.93041
1.83665
1.75195
1.6873
1.6756
1.81237
1.90775
1.89331
1.85998
1.82547
1.79206
1.7599
1.73168
1.68513
2.04392
1.95569
1.81779
1.84776
2.10026
2.03065
1.92764
1.82866
1.74435
1.6678
1.61716
1.66458
1.8101
1.84627
1.82488
1.79581
1.76369
1.7325
1.7041
1.66024
2.03006
1.93267
1.83273
1.9964
2.1419
2.04607
1.92969
1.82641
1.74214
1.66099
1.59643
1.56469
1.66856
1.77608
1.78855
1.7652
1.73364
1.70355
1.67449
1.63441
1.99194
1.9301
1.86477
2.15319
2.15946
2.0578
1.9347
1.82543
1.73665
1.65561
1.57806
1.52477
1.54003
1.65525
1.72864
1.72155
1.69832
1.67074
1.6405
1.609
1.94945
1.9109
1.96174
2.26977
2.17572
2.05917
1.93738
1.82631
1.73135
1.65043
1.56875
1.50113
1.46166
1.51946
1.64655
1.67757
1.66105
1.63562
1.60771
1.59196
1.85741
1.87718
2.14812
2.33393
2.18587
2.05542
1.93346
1.82188
1.72217
1.63813
1.5593
1.48222
1.43308
1.41836
1.52
1.61183
1.62317
1.60026
1.57751
1.59785
1.61643
1.8335
2.34916
2.3491
2.18317
2.04169
1.91941
1.80986
1.71072
1.62488
1.54996
1.47566
1.41056
1.37343
1.40333
1.51609
1.57068
1.56099
1.55815
1.63497
1.26421
1.83809
2.4712
2.35653
2.16899
2.02121
1.90064
1.79563
1.70046
1.6153
1.54038
1.47084
1.40194
1.35575
1.33298
1.40014
1.51327
1.53194
1.56951
1.70105
1.06268
1.81087
2.47096
2.31143
2.14216
2.00075
1.88504
1.78487
1.69407
1.6104
1.53455
1.46899
1.40574
1.34412
1.30575
1.3223
1.42158
1.5223
1.62735
1.72331
1.00876
1.84115
2.52083
2.30684
2.1273
1.98982
1.87871
1.78182
1.69357
1.61129
1.53388
1.46761
1.40959
1.34498
1.28805
1.27664
1.34841
1.54418
1.71985
1.77691
)
;

boundaryField
{
    inlet
    {
        type            fixedValue;
        value           uniform 1;
    }
    outlet
    {
        type            inletOutlet;
        inletValue      uniform 1;
        value           nonuniform List<scalar> 
20
(
2.00283
1.99473
1.96875
1.92403
1.87132
1.82342
1.7844
1.75413
1.72961
1.70679
1.68505
1.66017
1.63434
1.60889
1.59175
1.59755
1.63446
1.70058
1.72307
1.77677
)
;
    }
    bottom
    {
        type            symmetryPlane;
    }
    top
    {
        type            symmetryPlane;
    }
    obstacle
    {
        type            zeroGradient;
    }
    defaultFaces
    {
        type            empty;
    }
}


// ************************************************************************* //
