/*--------------------------------*- C++ -*----------------------------------*\
  =========                 |
  \\      /  F ield         | OpenFOAM: The Open Source CFD Toolbox
   \\    /   O peration     | Website:  https://openfoam.org
    \\  /    A nd           | Version:  6.0
     \\/     M anipulation  |
\*---------------------------------------------------------------------------*/
FoamFile
{
    version     2.0;
    format      ascii;
    class       volVectorField;
    location    "3";
    object      U;
}
// * * * * * * * * * * * * * * * * * * * * * * * * * * * * * * * * * * * * * //

dimensions      [0 1 -1 0 0 0 0];

internalField   nonuniform List<vector> 
1200
(
(3 1.5902e-15 0)
(3 -1.24944e-15 0)
(3 -2.32334e-15 0)
(3 -2.08584e-15 0)
(3 -8.36403e-16 0)
(3 3.61409e-16 0)
(3 9.29337e-17 0)
(3 -3.40757e-16 0)
(3 -2.27171e-16 0)
(3 -6.71188e-16 0)
(1.52177 0.0076054 0)
(0.739774 0.00876382 0)
(0.650318 0.010423 0)
(0.58105 0.0111326 0)
(0.506384 0.0116952 0)
(0.430125 0.0123926 0)
(0.349841 0.0132398 0)
(0.26286 0.0147952 0)
(0.16624 0.0162929 0)
(0.0636563 0.0190576 0)
(3 5.67928e-16 0)
(3 -1.13586e-16 0)
(3 -3.71735e-15 0)
(3 -2.72605e-15 0)
(3 -1.94128e-15 0)
(3 2.40595e-15 0)
(3 3.51083e-16 0)
(3 -1.08423e-15 0)
(3 -6.81514e-16 0)
(3 -7.64121e-16 0)
(1.51884 0.0266268 0)
(0.732918 0.0267767 0)
(0.642049 0.029119 0)
(0.572796 0.0315706 0)
(0.498358 0.0336651 0)
(0.422775 0.0362849 0)
(0.343798 0.0393848 0)
(0.258806 0.0445446 0)
(0.164179 0.0494275 0)
(0.0633439 0.0580046 0)
(3 7.22817e-17 0)
(3 1.34238e-16 0)
(3 -3.12877e-15 0)
(3 -8.67381e-16 0)
(3 -8.77707e-16 0)
(3 1.3527e-15 0)
(3 -1.51792e-15 0)
(3 -2.06519e-16 0)
(3 2.68475e-16 0)
(3 2.06519e-17 0)
(1.52862 0.0488918 0)
(0.731519 0.0462341 0)
(0.637262 0.0494179 0)
(0.566382 0.0530568 0)
(0.49069 0.0561333 0)
(0.414405 0.0600738 0)
(0.335557 0.0648205 0)
(0.252054 0.0732174 0)
(0.159791 0.0814007 0)
(0.0622924 0.0959596 0)
(3 1.75541e-16 0)
(3 4.64668e-16 0)
(3 5.98906e-16 0)
(3 -7.22817e-16 0)
(3 1.40433e-15 0)
(3 -1.3114e-15 0)
(3 -2.62279e-15 0)
(3 -9.49989e-16 0)
(3 2.27171e-16 0)
(3 1.73476e-15 0)
(1.54915 0.070904 0)
(0.734411 0.0664025 0)
(0.636991 0.0702241 0)
(0.564491 0.0752589 0)
(0.487018 0.0794232 0)
(0.409112 0.0846045 0)
(0.329118 0.0905956 0)
(0.245762 0.101646 0)
(0.154784 0.112657 0)
(0.0606298 0.132998 0)
(3 5.16298e-17 0)
(3 1.44563e-15 0)
(3 4.70864e-15 0)
(3 2.56084e-15 0)
(3 -7.53795e-16 0)
(3 -3.1804e-15 0)
(3 -4.02713e-16 0)
(3 -1.25977e-15 0)
(3 4.95646e-16 0)
(3 3.94452e-15 0)
(1.57738 0.0918414 0)
(0.739124 0.0871613 0)
(0.638935 0.0914 0)
(0.565598 0.0978056 0)
(0.48702 0.103195 0)
(0.40774 0.109766 0)
(0.326149 0.116929 0)
(0.241898 0.130264 0)
(0.150922 0.143498 0)
(0.0594739 0.169014 0)
(3 2.06519e-17 0)
(3 1.01194e-15 0)
(3 4.17169e-15 0)
(3 3.66572e-15 0)
(3 1.76574e-15 0)
(3 -2.17878e-15 0)
(3 2.83964e-15 0)
(3 4.31625e-15 0)
(3 7.68252e-15 0)
(3 2.04454e-15 0)
(1.6121 0.111977 0)
(0.744468 0.108215 0)
(0.641866 0.112828 0)
(0.568558 0.120522 0)
(0.489735 0.127222 0)
(0.409751 0.135394 0)
(0.326655 0.143896 0)
(0.240779 0.159441 0)
(0.148351 0.174377 0)
(0.0581338 0.204251 0)
(3 1.0326e-16 0)
(3 5.78254e-16 0)
(3 -3.20105e-16 0)
(3 1.10488e-15 0)
(3 -5.16298e-17 0)
(3 -2.00324e-15 0)
(3 -1.46629e-15 0)
(3 9.70641e-16 0)
(3 2.49888e-15 0)
(3 -4.3369e-16 0)
(1.65333 0.131772 0)
(0.750021 0.129509 0)
(0.644979 0.13424 0)
(0.572643 0.143159 0)
(0.494469 0.151283 0)
(0.414546 0.161301 0)
(0.330458 0.171391 0)
(0.243156 0.189283 0)
(0.148851 0.205705 0)
(0.0587276 0.239314 0)
(3 6.19558e-17 0)
(3 4.13039e-16 0)
(3 -1.87933e-15 0)
(3 -3.39724e-15 0)
(3 -5.11135e-15 0)
(3 -4.08908e-15 0)
(3 -1.38368e-15 0)
(3 -2.02389e-15 0)
(3 -5.3695e-15 0)
(3 -5.6483e-15 0)
(1.70196 0.151528 0)
(0.756237 0.151167 0)
(0.648012 0.155428 0)
(0.577249 0.165473 0)
(0.500413 0.175173 0)
(0.421035 0.18741 0)
(0.33584 0.199587 0)
(0.246283 0.220147 0)
(0.148931 0.237846 0)
(0.0578899 0.274543 0)
(3 -6.81514e-16 0)
(3 -1.18749e-15 0)
(3 -1.72444e-15 0)
(3 -1.6315e-15 0)
(3 -1.29075e-15 0)
(3 -3.35594e-15 0)
(3 -2.69508e-15 0)
(3 -3.09779e-15 0)
(3 -7.57926e-15 0)
(3 -8.20914e-15 0)
(1.75924 0.171023 0)
(0.763932 0.173356 0)
(0.65124 0.176344 0)
(0.581979 0.187387 0)
(0.506672 0.198865 0)
(0.428458 0.213679 0)
(0.343272 0.228327 0)
(0.252842 0.251845 0)
(0.153018 0.270918 0)
(0.059934 0.310316 0)
(3 -1.34238e-16 0)
(3 -2.57117e-15 0)
(3 -1.42498e-15 0)
(3 -4.54342e-16 0)
(3 6.19558e-16 0)
(3 -3.71735e-16 0)
(3 -2.01356e-15 0)
(3 -2.36465e-15 0)
(3 -3.92387e-15 0)
(3 -4.5331e-15 0)
(1.82563 0.189931 0)
(0.77325 0.196267 0)
(0.654775 0.196999 0)
(0.587149 0.208752 0)
(0.513766 0.222045 0)
(0.437079 0.239769 0)
(0.351804 0.257546 0)
(0.25971 0.28473 0)
(0.156217 0.305568 0)
(0.0600121 0.347344 0)
(3 -2.89127e-16 0)
(3 -3.30431e-16 0)
(3 -1.89998e-15 0)
(3 -7.22817e-16 0)
(3 1.0326e-15 0)
(3 2.20976e-15 0)
(3 -2.06519e-17 0)
(3 -3.09779e-15 0)
(3 -3.47985e-15 0)
(3 -4.70864e-15 0)
(1.90125 0.20828 0)
(0.783936 0.220255 0)
(0.657457 0.217591 0)
(0.590722 0.229711 0)
(0.51932 0.244826 0)
(0.445038 0.265669 0)
(0.361236 0.286969 0)
(0.269522 0.318239 0)
(0.163624 0.341416 0)
(0.0636434 0.385778 0)
(3 -3.92387e-16 0)
(3 6.81514e-16 0)
(3 -4.23365e-16 0)
(3 1.02227e-15 0)
(3 5.67928e-16 0)
(3 2.27171e-16 0)
(3 -9.49989e-16 0)
(3 -3.61409e-15 0)
(3 -6.05101e-15 0)
(3 -5.15266e-15 0)
(1.98717 0.225861 0)
(0.796822 0.245729 0)
(0.660137 0.238553 0)
(0.593071 0.250495 0)
(0.522836 0.267195 0)
(0.450831 0.291318 0)
(0.368685 0.316774 0)
(0.277243 0.353116 0)
(0.168201 0.379709 0)
(0.0638307 0.426526 0)
(3 -5.16298e-17 0)
(3 -1.0326e-17 0)
(3 1.10488e-15 0)
(3 3.01518e-15 0)
(3 7.84773e-16 0)
(3 7.95099e-16 0)
(3 5.16298e-17 0)
(3 -2.04454e-15 0)
(3 -4.03745e-15 0)
(3 4.13039e-17 0)
(2.08413 0.241533 0)
(0.813544 0.272457 0)
(0.665322 0.259872 0)
(0.597527 0.271197 0)
(0.528036 0.289034 0)
(0.458326 0.316169 0)
(0.378689 0.345972 0)
(0.289471 0.387915 0)
(0.178924 0.419128 0)
(0.0694889 0.469389 0)
(3 2.06519e-17 0)
(3 1.85867e-16 0)
(3 1.12553e-15 0)
(3 1.89998e-15 0)
(3 4.80157e-15 0)
(3 4.58473e-15 0)
(3 7.22817e-16 0)
(3 -1.0326e-15 0)
(3 1.85867e-15 0)
(3 3.6967e-15 0)
(2.1895 0.254644 0)
(0.83246 0.300739 0)
(0.671439 0.281889 0)
(0.603076 0.29245 0)
(0.534138 0.311124 0)
(0.466413 0.341056 0)
(0.388906 0.375479 0)
(0.301526 0.424059 0)
(0.187303 0.462338 0)
(0.0697948 0.516366 0)
(3 1.23912e-16 0)
(3 3.82061e-16 0)
(3 7.84773e-16 0)
(3 -3.40757e-16 0)
(3 1.73476e-15 0)
(3 4.21299e-15 0)
(3 4.5331e-15 0)
(3 4.78092e-15 0)
(3 3.09779e-15 0)
(3 2.4266e-15 0)
(2.30398 0.265137 0)
(0.855085 0.330254 0)
(0.681097 0.303319 0)
(0.613928 0.312823 0)
(0.545958 0.332105 0)
(0.479918 0.364716 0)
(0.404934 0.403915 0)
(0.32015 0.459652 0)
(0.204875 0.507002 0)
(0.0796111 0.567019 0)
(3 -2.58149e-16 0)
(3 -1.13586e-16 0)
(3 3.09779e-17 0)
(3 -2.34399e-15 0)
(3 -5.20429e-15 0)
(3 -1.3114e-15 0)
(3 6.71188e-16 0)
(3 1.19781e-15 0)
(3 9.19011e-16 0)
(3 1.70378e-15 0)
(2.42955 0.272734 0)
(0.882032 0.361604 0)
(0.687065 0.324594 0)
(0.620201 0.333937 0)
(0.554641 0.353702 0)
(0.493115 0.388573 0)
(0.422819 0.432064 0)
(0.340624 0.496897 0)
(0.221346 0.558245 0)
(0.0816511 0.626258 0)
(3 3.09779e-16 0)
(3 9.70641e-16 0)
(3 1.44563e-16 0)
(3 -3.42822e-15 0)
(3 -4.76027e-15 0)
(3 -2.80866e-15 0)
(3 -6.19558e-17 0)
(3 -5.05972e-16 0)
(3 3.738e-15 0)
(3 1.74509e-15 0)
(2.57122 0.275255 0)
(0.913343 0.399466 0)
(0.69655 0.35057 0)
(0.629632 0.356295 0)
(0.564652 0.374637 0)
(0.508364 0.410407 0)
(0.44308 0.458886 0)
(0.368646 0.533104 0)
(0.252446 0.610634 0)
(0.0991024 0.6927 0)
(3 8.05425e-16 0)
(3 7.33143e-16 0)
(3 -3.71735e-16 0)
(3 -2.13747e-15 0)
(3 2.00324e-15 0)
(3 1.28042e-15 0)
(3 7.95099e-16 0)
(3 1.70378e-15 0)
(3 1.42498e-15 0)
(3 -1.869e-15 0)
(2.76797 0.261125 0)
(0.980288 0.432245 0)
(0.73558 0.371752 0)
(0.659075 0.37944 0)
(0.584276 0.396567 0)
(0.525753 0.431987 0)
(0.46545 0.484423 0)
(0.399383 0.569466 0)
(0.283298 0.673691 0)
(0.105179 0.778748 0)
(3 7.74447e-16 0)
(3 -4.23365e-16 0)
(3 -2.64345e-15 0)
(3 1.20814e-15 0)
(3 1.8277e-15 0)
(3 8.88033e-16 0)
(3 4.3369e-16 0)
(3 2.64345e-15 0)
(3 1.5902e-15 0)
(3 7.02166e-16 0)
(2.99434 0.185484 0)
(1.08486 0.458567 0)
(0.808907 0.390038 0)
(0.71615 0.403969 0)
(0.622288 0.419628 0)
(0.551682 0.453203 0)
(0.490992 0.508449 0)
(0.436407 0.603994 0)
(0.337163 0.734882 0)
(0.134742 0.876485 0)
(3 9.29337e-17 0)
(3 4.3369e-16 0)
(3 1.32172e-15 0)
(3 4.5331e-15 0)
(3 2.82931e-15 0)
(3 1.80704e-15 0)
(3 3.57278e-15 0)
(3 3.65539e-15 0)
(3 2.64345e-15 0)
(3 1.74509e-15 0)
(3.09133 0.0597653 0)
(1.18132 0.453255 0)
(0.85587 0.42422 0)
(0.771139 0.43636 0)
(0.670219 0.448139 0)
(0.586688 0.477482 0)
(0.522091 0.532114 0)
(0.478175 0.634326 0)
(0.406072 0.802359 0)
(0.204689 1.03871 0)
(3 -2.16845e-16 0)
(3 1.44563e-16 0)
(3 1.02227e-15 0)
(3 1.43531e-15 0)
(3 1.40949e-15 0)
(3 1.47919e-15 0)
(3 1.26751e-15 0)
(3 3.51083e-16 0)
(3 1.11004e-16 0)
(3 -1.60052e-16 0)
(3.01368 0.00213397 0)
(1.34822 0.452684 0)
(0.853454 0.482664 0)
(0.793149 0.498621 0)
(0.732173 0.516261 0)
(0.668346 0.537493 0)
(0.614836 0.587208 0)
(0.582542 0.699761 0)
(0.601968 0.88077 0)
(0.702618 1.13744 0)
(3 2.83964e-17 0)
(3 1.2133e-16 0)
(3 -4.38853e-16 0)
(3 -7.35725e-16 0)
(3 -5.85998e-16 0)
(3 -7.22817e-17 0)
(3 -1.172e-15 0)
(3 -9.19011e-16 0)
(3 -1.12553e-15 0)
(3 -2.1762e-15 0)
(3.00007 4.03796e-06 0)
(1.99912 0.47361 0)
(0.918972 0.558642 0)
(0.830921 0.558687 0)
(0.812059 0.596599 0)
(0.778621 0.628098 0)
(0.763521 0.678242 0)
(0.766125 0.77001 0)
(0.856884 0.899213 0)
(1.10094 1.00738 0)
(3 4.64668e-17 0)
(3 1.44563e-16 0)
(3 -6.60862e-16 0)
(3 -6.42791e-16 0)
(3 -4.54342e-16 0)
(3 -3.87224e-17 0)
(3 -6.66025e-16 0)
(3 1.29075e-17 0)
(3 9.73222e-16 0)
(3 2.99453e-16 0)
(3 5.00557e-10 0)
(2.96496 0.15869 0)
(1.18613 0.619114 0)
(0.930137 0.578713 0)
(0.918325 0.627101 0)
(0.896482 0.667512 0)
(0.902528 0.718982 0)
(0.933119 0.786102 0)
(1.03955 0.865561 0)
(1.25795 0.929317 0)
(3 -2.19427e-16 0)
(3 -7.35725e-16 0)
(3 -5.31787e-16 0)
(3 -6.32465e-16 0)
(3 -8.93196e-16 0)
(3 -9.96456e-16 0)
(3 -5.96324e-16 0)
(3 -1.00678e-15 0)
(3 -5.93743e-17 0)
(3 1.79414e-15 0)
(3 -7.66787e-10 0)
(3.0229 0.00287833 0)
(1.69457 0.599882 0)
(1.01215 0.687326 0)
(0.968464 0.693393 0)
(0.975772 0.727669 0)
(1.00331 0.769898 0)
(1.05946 0.81389 0)
(1.168 0.862348 0)
(1.33865 0.895656 0)
(3 -1.0326e-17 0)
(3 -1.18232e-15 0)
(3 -8.88033e-16 0)
(3 -1.11004e-15 0)
(3 -1.71411e-15 0)
(3 -1.99033e-15 0)
(3 -2.86545e-16 0)
(3 -2.96871e-16 0)
(3 -4.25946e-16 0)
(3 -6.19558e-16 0)
(3 -9.76192e-11 0)
(3.0002 2.29194e-05 0)
(2.83773 0.255137 0)
(1.26044 0.730956 0)
(1.0529 0.715734 0)
(1.06905 0.730401 0)
(1.09436 0.769734 0)
(1.15231 0.807335 0)
(1.24803 0.842742 0)
(1.38324 0.865028 0)
(3 2.19427e-16 0)
(3 7.43469e-16 0)
(3 6.24721e-16 0)
(3 5.57602e-16 0)
(3 8.67381e-16 0)
(3 6.86677e-16 0)
(3 8.38985e-16 0)
(3 1.00162e-15 0)
(3 9.8613e-16 0)
(3 1.28042e-15 0)
(3 -1.08722e-12 0)
(3.00001 -3.20377e-06 0)
(3.02679 0.00711814 0)
(1.8495 0.656212 0)
(1.14403 0.789801 0)
(1.13527 0.79244 0)
(1.16538 0.803195 0)
(1.21932 0.81991 0)
(1.30002 0.836269 0)
(1.40907 0.847394 0)
(3 -1.54889e-16 0)
(3 5.29206e-16 0)
(3 1.45854e-15 0)
(3 2.10133e-15 0)
(3 2.40595e-15 0)
(3 1.77607e-15 0)
(3 1.283e-15 0)
(3 1.45854e-15 0)
(3 1.10746e-15 0)
(3 2.20459e-15 0)
(3 8.59636e-16 0)
(3 -5.57386e-07 0)
(3.00027 9.99943e-05 0)
(2.91923 0.188069 0)
(1.53049 0.812488 0)
(1.20324 0.823908 0)
(1.23795 0.819714 0)
(1.27781 0.826347 0)
(1.34485 0.832515 0)
(1.4324 0.835534 0)
(3 -2.19427e-16 0)
(3 -7.04747e-16 0)
(3 -6.9184e-16 0)
(3 -4.77576e-16 0)
(3 -5.05972e-16 0)
(3 -3.74316e-16 0)
(3 -5.55021e-16 0)
(3 -5.11135e-16 0)
(3 -5.65347e-16 0)
(3 -6.78932e-16 0)
(3 -1.85867e-16 0)
(3 -2.57598e-08 0)
(3 9.94628e-09 0)
(3.00787 0.00711728 0)
(2.54224 0.509048 0)
(1.3882 0.873474 0)
(1.29443 0.857842 0)
(1.34746 0.849495 0)
(1.39571 0.8469 0)
(1.46079 0.840627 0)
(3 1.18749e-16 0)
(3 2.19427e-16 0)
(3 1.18749e-16 0)
(3 -2.83964e-17 0)
(3 2.16845e-16 0)
(3 2.60731e-16 0)
(3 6.47954e-16 0)
(3 6.55699e-16 0)
(3 -6.45373e-17 0)
(3 1.98775e-16 0)
(3 -1.30623e-15 0)
(3 -9.43471e-11 0)
(3 -2.62861e-09 0)
(3.00003 6.65654e-05 0)
(3.02076 0.040284 0)
(2.04739 0.713248 0)
(1.3953 0.884072 0)
(1.39632 0.886748 0)
(1.44661 0.874912 0)
(1.49764 0.859703 0)
(3 1.18749e-16 0)
(3 1.31656e-16 0)
(3 4.00131e-16 0)
(3 7.48632e-17 0)
(3 1.39401e-16 0)
(3 -1.39401e-16 0)
(3 4.18202e-16 0)
(3 3.20105e-16 0)
(3 1.16167e-16 0)
(3 -7.22817e-17 0)
(3 7.30562e-16 0)
(3 -1.02743e-13 0)
(3 -4.1362e-10 0)
(3 2.44989e-08 0)
(3.00064 0.00110175 0)
(2.91977 0.167796 0)
(1.86919 0.808904 0)
(1.46842 0.907243 0)
(1.49107 0.904116 0)
(1.54288 0.882476 0)
(3 -1.9103e-16 0)
(3 -4.23365e-16 0)
(3 -8.90614e-16 0)
(3 -6.60862e-16 0)
(3 -9.73222e-16 0)
(3 -1.29333e-15 0)
(3 -2.01098e-15 0)
(3 -3.0539e-15 0)
(3 -2.01098e-15 0)
(3 -2.57117e-15 0)
(3 -1.89998e-15 0)
(3 -3.34303e-15 0)
(3 -1.96544e-11 0)
(3 -1.57608e-11 0)
(3 1.47967e-06 0)
(3.00131 0.0081424 0)
(2.78076 0.301655 0)
(1.81579 0.854414 0)
(1.54796 0.926478 0)
(1.57441 0.919753 0)
(3 2.22008e-16 0)
(3 5.16298e-16 0)
(3 5.55021e-16 0)
(3 4.10457e-16 0)
(3 -1.47661e-15 0)
(3 -3.04616e-15 0)
(3 -3.96775e-15 0)
(3 -4.76027e-15 0)
(3 -3.90838e-15 0)
(3 -4.12264e-15 0)
(3 -2.05745e-15 0)
(3 -8.62218e-16 0)
(3 -1.02173e-13 0)
(3 -3.23663e-12 0)
(3 3.32947e-10 0)
(3 4.43573e-05 0)
(2.99886 0.0194031 0)
(2.64844 0.404087 0)
(1.83262 0.878502 0)
(1.62322 0.938239 0)
(3 2.14264e-16 0)
(3 5.21461e-16 0)
(3 7.17654e-16 0)
(3 1.00678e-16 0)
(3 3.82061e-16 0)
(3 -7.48632e-17 0)
(3 5.83417e-16 0)
(3 1.34754e-15 0)
(3 7.0991e-16 0)
(3 2.35948e-15 0)
(3 2.34141e-15 0)
(3 2.79834e-15 0)
(3 1.01453e-15 0)
(3 -1.62185e-13 0)
(3 -1.2456e-13 0)
(3 2.70996e-08 0)
(2.99999 0.000197042 0)
(2.98731 0.0367645 0)
(2.62926 0.452801 0)
(1.81542 0.907166 0)
(3 3.76898e-16 0)
(3 -3.09779e-17 0)
(3 -1.64183e-15 0)
(3 -1.32689e-15 0)
(3 1.66764e-15 0)
(3 3.29656e-15 0)
(3 6.07941e-15 0)
(3 5.90645e-15 0)
(3 5.07779e-15 0)
(3 3.94452e-15 0)
(3 2.50663e-15 0)
(3 7.15073e-16 0)
(3 -1.11779e-15 0)
(3 -4.2259e-15 0)
(3 -3.21886e-14 0)
(3 4.41498e-12 0)
(3 1.5757e-07 0)
(2.99985 0.000659357 0)
(2.99554 0.037679 0)
(2.45987 0.57993 0)
(3 1.60052e-16 0)
(3 -1.26493e-16 0)
(3 4.02713e-16 0)
(3 1.93612e-16 0)
(3 -3.56246e-16 0)
(3 -1.13586e-16 0)
(3 1.18749e-16 0)
(3 5.85998e-16 0)
(3 1.18749e-16 0)
(3 -7.17654e-16 0)
(3 -2.19427e-15 0)
(3 -2.78285e-15 0)
(3 -2.1065e-15 0)
(3 -2.03947e-30 0)
(3 -1.283e-15 0)
(3 -1.76574e-15 0)
(3 4.82904e-11 0)
(3 6.76408e-07 0)
(2.99995 0.000975422 0)
(2.99628 0.0597693 0)
(3 -6.99584e-16 0)
(3 -4.28528e-16 0)
(3 5.78254e-16 0)
(3 1.06874e-15 0)
(3 -4.13039e-17 0)
(3 -3.22686e-16 0)
(3 -1.86384e-15 0)
(3 -1.5618e-15 0)
(3 -1.5618e-15 0)
(3 -1.66764e-15 0)
(3 -1.66248e-15 0)
(3 -1.06874e-15 0)
(3 -1.19523e-15 0)
(3 -1.31656e-16 0)
(3 -2.22008e-16 0)
(3 -2.71057e-16 0)
(3 8.5912e-15 0)
(3 1.97158e-10 0)
(3 2.42466e-06 0)
(3.00166 0.000618609 0)
(3 -1.70378e-16 0)
(3 -4.49179e-16 0)
(3 -9.68059e-16 0)
(3 -6.0665e-16 0)
(3 -5.05972e-16 0)
(3 -5.42113e-17 0)
(3 -3.84642e-16 0)
(3 -4.54342e-16 0)
(3 -1.12295e-15 0)
(3 -7.74447e-16 0)
(3 1.75541e-16 0)
(3 -1.02485e-15 0)
(3 -3.43855e-15 0)
(3 -5.34885e-15 0)
(3 -3.04874e-15 0)
(3 -1.6883e-15 0)
(3 -2.01356e-15 0)
(3 1.05738e-14 0)
(3 1.37096e-09 0)
(3.00001 3.00048e-07 0)
(3 1.96193e-16 0)
(3 4.95646e-16 0)
(3 5.03391e-16 0)
(3 6.42791e-16 0)
(3 8.95777e-16 0)
(3 6.53117e-16 0)
(3 1.45596e-15 0)
(3 1.63925e-15 0)
(3 6.4021e-16 0)
(3 7.58958e-16 0)
(3 5.91161e-16 0)
(3 7.04747e-16 0)
(3 1.53082e-15 0)
(3 2.10392e-15 0)
(3 2.02905e-15 0)
(3 2.01098e-15 0)
(3 1.35528e-15 0)
(3 3.53664e-16 0)
(3 1.91518e-13 0)
(3 9.98205e-12 0)
(3 6.97003e-17 0)
(3 3.1236e-16 0)
(3 5.21461e-16 0)
(3 2.71057e-16 0)
(3 3.74316e-16 0)
(3 3.71735e-16 0)
(3 3.22686e-16 0)
(3 2.2459e-16 0)
(3 6.68606e-16 0)
(3 1.43015e-15 0)
(3 1.95161e-15 0)
(3 3.2501e-15 0)
(3 4.93323e-15 0)
(3 5.92452e-15 0)
(3 5.69993e-15 0)
(3 5.56053e-15 0)
(3 4.78608e-15 0)
(3 2.39304e-15 0)
(3 4.87127e-15 0)
(3 -2.05627e-11 0)
(3 -2.73638e-16 0)
(3 -2.86545e-16 0)
(3 -4.05294e-16 0)
(3 -5.93743e-16 0)
(3 -7.7961e-16 0)
(3 -6.01487e-16 0)
(3 -1.16683e-15 0)
(3 -1.51017e-15 0)
(3 -1.34238e-15 0)
(3 -7.53795e-16 0)
(3 1.41982e-16 0)
(3 5.05972e-16 0)
(3 9.16429e-16 0)
(3 9.70641e-16 0)
(3 1.87158e-15 0)
(3 1.86384e-15 0)
(3 2.04196e-15 0)
(3 1.3243e-15 0)
(3 2.39562e-15 0)
(3 -2.44573e-12 0)
(1.72659 1.12049 0)
(2.28032 0.174397 0)
(2.26251 -0.0495801 0)
(2.15426 -0.0546004 0)
(2.17388 -0.0197047 0)
(2.19787 -0.00153884 0)
(1.7723 -0.0172474 0)
(0.919283 -0.0247806 0)
(0.926265 -0.0546509 0)
(1.12381 -0.0596348 0)
(1.33694 -0.041365 0)
(1.50639 -0.0208022 0)
(1.64307 -0.0116611 0)
(1.75691 0.000641454 0)
(1.84266 0.00449565 0)
(1.92234 0.00825163 0)
(1.99609 0.0107122 0)
(2.06736 0.0116397 0)
(2.12973 0.0124094 0)
(2.22849 0.0136842 0)
(1.82737 0.54638 0)
(2.3685 -0.0258738 0)
(2.37759 -0.204637 0)
(2.30727 -0.099671 0)
(2.26496 0.00926552 0)
(2.26723 0.0124914 0)
(1.94982 -0.0423459 0)
(1.13586 -0.0495081 0)
(1.12881 -0.0883978 0)
(1.27909 -0.0663173 0)
(1.43469 -0.0319016 0)
(1.56704 -0.0101498 0)
(1.68026 0.000770179 0)
(1.77812 0.006315 0)
(1.86364 0.0119675 0)
(1.94244 0.0205362 0)
(2.01512 0.0268883 0)
(2.08528 0.0292268 0)
(2.14657 0.0320427 0)
(2.24461 0.0350667 0)
(1.82687 0.628159 0)
(2.26948 0.336342 0)
(2.47184 -0.0771458 0)
(2.4817 -0.0737411 0)
(2.43493 -0.0226952 0)
(2.41791 -0.00125713 0)
(2.15758 -0.245789 0)
(1.54201 -0.0452718 0)
(1.45356 -0.131754 0)
(1.52362 -0.103877 0)
(1.60831 -0.0736177 0)
(1.68982 -0.0386216 0)
(1.7664 -0.0142664 0)
(1.84033 0.00676517 0)
(1.91474 0.0221195 0)
(1.98549 0.0315017 0)
(2.05284 0.0383145 0)
(2.11832 0.0420741 0)
(2.17545 0.0472564 0)
(2.26771 0.0541971 0)
(1.79919 0.697941 0)
(2.22276 0.411258 0)
(2.50613 -0.0741309 0)
(2.57057 -0.125491 0)
(2.54121 -0.0930425 0)
(2.53969 -0.0720487 0)
(2.16107 -0.491791 0)
(1.84558 -0.286096 0)
(1.64237 -0.0823669 0)
(1.68384 -0.0895665 0)
(1.74115 -0.045585 0)
(1.79834 0.000241871 0)
(1.85723 0.01789 0)
(1.91758 0.0288254 0)
(1.98116 0.0369185 0)
(2.04348 0.0454078 0)
(2.10352 0.0556257 0)
(2.16154 0.0628765 0)
(2.21172 0.071481 0)
(2.29453 0.0780686 0)
(1.77763 0.719148 0)
(2.16826 0.505305 0)
(2.44288 0.0979405 0)
(2.56571 -0.0287381 0)
(2.57266 -0.0661397 0)
(2.5868 -0.1271 0)
(2.10939 -0.621569 0)
(2.01714 -0.545244 0)
(1.75377 -0.183688 0)
(1.739 -0.0516054 0)
(1.80487 -0.0333945 0)
(1.86486 -0.00114992 0)
(1.92498 0.0235156 0)
(1.98445 0.0399582 0)
(2.04322 0.052631 0)
(2.09972 0.0630075 0)
(2.15414 0.0746514 0)
(2.20671 0.082301 0)
(2.25148 0.0928731 0)
(2.32474 0.102366 0)
(1.75213 0.745357 0)
(2.07965 0.595902 0)
(2.37142 0.191481 0)
(2.53766 0.0796657 0)
(2.58905 -0.104992 0)
(2.48348 -0.269857 0)
(2.04083 -0.692005 0)
(2.05 -0.702089 0)
(1.89451 -0.326899 0)
(1.78315 -0.0814856 0)
(1.84265 -0.000469529 0)
(1.90261 0.0280988 0)
(1.96733 0.0447537 0)
(2.02988 0.061495 0)
(2.08793 0.0784754 0)
(2.14204 0.0913578 0)
(2.19384 0.104437 0)
(2.24399 0.112433 0)
(2.28625 0.123031 0)
(2.35442 0.130388 0)
(1.7323 0.77082 0)
(2.02567 0.623972 0)
(2.29733 0.286412 0)
(2.49696 0.194913 0)
(2.53613 -0.0457075 0)
(2.27038 -0.416103 0)
(2.02512 -0.6595 0)
(2.04393 -0.709041 0)
(2.043 -0.515619 0)
(1.87659 -0.141683 0)
(1.88767 0.000136589 0)
(1.9453 0.0314371 0)
(2.00565 0.0559057 0)
(2.06572 0.0823566 0)
(2.12313 0.10326 0)
(2.17764 0.114018 0)
(2.22916 0.125461 0)
(2.27843 0.132437 0)
(2.31907 0.144142 0)
(2.38308 0.154399 0)
(1.71529 0.798996 0)
(1.97841 0.648674 0)
(2.23429 0.374089 0)
(2.44236 0.321036 0)
(2.40853 -0.0289086 0)
(2.13188 -0.54889 0)
(2.01165 -0.689861 0)
(2.05403 -0.684059 0)
(2.12718 -0.616969 0)
(2.0645 -0.309624 0)
(1.95299 -0.0335165 0)
(1.99235 0.0577991 0)
(2.04573 0.0791165 0)
(2.10214 0.100643 0)
(2.15593 0.123462 0)
(2.20554 0.139467 0)
(2.25257 0.156646 0)
(2.29868 0.166874 0)
(2.33811 0.179574 0)
(2.40314 0.187269 0)
(1.70311 0.826751 0)
(1.94921 0.658966 0)
(2.19211 0.460925 0)
(2.39513 0.379497 0)
(2.29075 -0.0455406 0)
(2.06958 -0.545765 0)
(2.02607 -0.67881 0)
(2.08609 -0.66613 0)
(2.16579 -0.637626 0)
(2.19076 -0.466954 0)
(2.09519 -0.125049 0)
(2.0533 0.0514767 0)
(2.08896 0.105947 0)
(2.13111 0.130353 0)
(2.17849 0.153474 0)
(2.22756 0.166805 0)
(2.27673 0.181222 0)
(2.32449 0.188903 0)
(2.36404 0.200703 0)
(2.4269 0.211167 0)
(1.70295 0.846159 0)
(1.93276 0.669683 0)
(2.14878 0.560481 0)
(2.32033 0.375184 0)
(2.17822 -0.11941 0)
(2.00394 -0.561492 0)
(2.03003 -0.626554 0)
(2.11743 -0.624661 0)
(2.20482 -0.616836 0)
(2.27821 -0.554927 0)
(2.24173 -0.299511 0)
(2.14057 -0.00132191 0)
(2.13888 0.114898 0)
(2.16672 0.150261 0)
(2.20935 0.175854 0)
(2.25409 0.191804 0)
(2.29677 0.211457 0)
(2.3378 0.222422 0)
(2.37338 0.235759 0)
(2.43561 0.245918 0)
(1.70555 0.868186 0)
(1.92446 0.686754 0)
(2.11938 0.647857 0)
(2.20972 0.355882 0)
(2.03854 -0.188018 0)
(1.97939 -0.51599 0)
(2.04218 -0.570968 0)
(2.14339 -0.588597 0)
(2.24325 -0.593759 0)
(2.31241 -0.572479 0)
(2.33082 -0.430437 0)
(2.26647 -0.121635 0)
(2.18849 0.108254 0)
(2.19533 0.179536 0)
(2.23065 0.208501 0)
(2.27269 0.223676 0)
(2.31661 0.240835 0)
(2.35963 0.246415 0)
(2.39599 0.257546 0)
(2.45678 0.269235 0)
(1.71709 0.878333 0)
(1.92408 0.714208 0)
(2.11974 0.708694 0)
(2.05479 0.265699 0)
(1.9244 -0.25935 0)
(1.95372 -0.469393 0)
(2.05466 -0.509183 0)
(2.16007 -0.528936 0)
(2.25389 -0.528254 0)
(2.33072 -0.530611 0)
(2.39389 -0.480766 0)
(2.3693 -0.286317 0)
(2.27398 0.0411405 0)
(2.22527 0.203581 0)
(2.24773 0.240732 0)
(2.28434 0.254624 0)
(2.3237 0.273877 0)
(2.36418 0.279581 0)
(2.39949 0.291944 0)
(2.45843 0.302891 0)
(1.73976 0.897852 0)
(1.91423 0.768369 0)
(2.09058 0.697243 0)
(1.95193 0.160692 0)
(1.86193 -0.263829 0)
(1.93976 -0.38794 0)
(2.0609 -0.443077 0)
(2.17401 -0.474461 0)
(2.26788 -0.479959 0)
(2.35674 -0.486253 0)
(2.39777 -0.474744 0)
(2.43877 -0.367563 0)
(2.37537 -0.0979643 0)
(2.29851 0.154402 0)
(2.28926 0.261023 0)
(2.30835 0.281698 0)
(2.34088 0.300858 0)
(2.3795 0.304043 0)
(2.41758 0.321642 0)
(2.47155 0.328924 0)
(1.8063 0.862761 0)
(1.90828 0.819725 0)
(2.05525 0.662153 0)
(1.83444 0.0324232 0)
(1.82451 -0.268827 0)
(1.92643 -0.324873 0)
(2.06049 -0.376537 0)
(2.17556 -0.407633 0)
(2.26506 -0.413404 0)
(2.34495 -0.408128 0)
(2.4127 -0.416727 0)
(2.48016 -0.378194 0)
(2.47085 -0.228557 0)
(2.39406 0.0801895 0)
(2.32656 0.274965 0)
(2.33192 0.316186 0)
(2.36176 0.333735 0)
(2.39871 0.33397 0)
(2.42975 0.360924 0)
(2.47575 0.357483 0)
(1.8881 0.788725 0)
(1.91892 0.850781 0)
(1.9558 0.567294 0)
(1.70391 -0.011888 0)
(1.78066 -0.217234 0)
(1.90562 -0.262255 0)
(2.04296 -0.301095 0)
(2.16558 -0.333834 0)
(2.26851 -0.352895 0)
(2.35668 -0.349786 0)
(2.44577 -0.367493 0)
(2.49656 -0.360582 0)
(2.55104 -0.277384 0)
(2.51186 -0.0727295 0)
(2.43936 0.198353 0)
(2.37638 0.335966 0)
(2.38075 0.369167 0)
(2.40934 0.374499 0)
(2.43246 0.403831 0)
(2.48241 0.359329 0)
(2.05499 0.674514 0)
(1.93828 0.921858 0)
(1.69705 0.358836 0)
(1.56678 -0.0367627 0)
(1.74255 -0.176002 0)
(1.9009 -0.218701 0)
(2.04672 -0.247742 0)
(2.17491 -0.273693 0)
(2.28456 -0.292407 0)
(2.37871 -0.293165 0)
(2.46113 -0.291018 0)
(2.5374 -0.300906 0)
(2.59544 -0.278751 0)
(2.60287 -0.158834 0)
(2.55326 0.10477 0)
(2.45984 0.318188 0)
(2.43174 0.39334 0)
(2.44685 0.409594 0)
(2.44293 0.423372 0)
(2.47876 0.34831 0)
(2.26323 0.645255 0)
(1.98279 0.936591 0)
(1.39338 0.195894 0)
(1.4865 -0.0537975 0)
(1.71 -0.137324 0)
(1.8999 -0.167584 0)
(2.05846 -0.187151 0)
(2.19384 -0.207211 0)
(2.31048 -0.227064 0)
(2.40938 -0.233317 0)
(2.49528 -0.233803 0)
(2.58027 -0.24028 0)
(2.62873 -0.24626 0)
(2.68534 -0.181838 0)
(2.66237 -0.0300108 0)
(2.5928 0.241329 0)
(2.48182 0.416921 0)
(2.47367 0.457811 0)
(2.46863 0.435072 0)
(2.44945 0.24472 0)
(2.77007 0.378257 0)
(2.08542 0.837805 0)
(1.28177 0.131374 0)
(1.50902 -0.0546456 0)
(1.74963 -0.107994 0)
(1.95006 -0.135 0)
(2.10952 -0.147746 0)
(2.24115 -0.158995 0)
(2.35358 -0.170476 0)
(2.4511 -0.177686 0)
(2.53524 -0.17515 0)
(2.60703 -0.165074 0)
(2.67647 -0.176995 0)
(2.715 -0.180119 0)
(2.74736 -0.0744948 0)
(2.69641 0.129527 0)
(2.61627 0.350973 0)
(2.54294 0.461699 0)
(2.50456 0.408945 0)
(2.44739 0.16441 0)
(2.98164 0.114278 0)
(2.21063 0.568102 0)
(1.30884 0.0224699 0)
(1.5867 -0.0784683 0)
(1.83552 -0.0879567 0)
(2.02574 -0.0903968 0)
(2.17058 -0.0927977 0)
(2.28939 -0.0972269 0)
(2.39196 -0.102805 0)
(2.48193 -0.106395 0)
(2.56154 -0.106383 0)
(2.63364 -0.0963551 0)
(2.69953 -0.100296 0)
(2.73799 -0.126212 0)
(2.79871 -0.0463257 0)
(2.77857 0.039242 0)
(2.7146 0.279984 0)
(2.61635 0.417253 0)
(2.52714 0.206758 0)
(2.4144 -0.0159964 0)
(2.99495 0.0141085 0)
(2.45992 0.351841 0)
(1.37338 0.0872406 0)
(1.65612 -0.0131124 0)
(1.89697 -0.0328295 0)
(2.07722 -0.0358898 0)
(2.21483 -0.0363303 0)
(2.32821 -0.0368905 0)
(2.42666 -0.0375494 0)
(2.51543 -0.0388212 0)
(2.596 -0.0403804 0)
(2.66349 -0.0362235 0)
(2.72349 -0.0351684 0)
(2.78791 -0.043644 0)
(2.82376 -0.0653359 0)
(2.82437 -0.0211074 0)
(2.76068 0.0726558 0)
(2.59926 0.160727 0)
(2.55993 0.175251 0)
(2.40781 0.07638 0)
)
;

boundaryField
{
    inlet
    {
        type            fixedValue;
        value           uniform (3 0 0);
    }
    outlet
    {
        type            inletOutlet;
        inletValue      uniform (3 0 0);
        value           nonuniform List<vector> 
20
(
(2.22849 0.0136842 0)
(2.24461 0.0350667 0)
(2.26771 0.0541971 0)
(2.29453 0.0780686 0)
(2.32474 0.102366 0)
(2.35442 0.130388 0)
(2.38308 0.154399 0)
(2.40314 0.187269 0)
(2.4269 0.211167 0)
(2.43561 0.245918 0)
(2.45678 0.269235 0)
(2.45843 0.302891 0)
(2.47155 0.328924 0)
(2.47575 0.357483 0)
(2.48241 0.359329 0)
(2.47876 0.34831 0)
(2.44945 0.24472 0)
(2.44739 0.16441 0)
(2.4144 -0.0159964 0)
(2.40781 0.07638 0)
)
;
    }
    bottom
    {
        type            symmetryPlane;
    }
    top
    {
        type            symmetryPlane;
    }
    obstacle
    {
        type            slip;
    }
    defaultFaces
    {
        type            empty;
    }
}


// ************************************************************************* //
