/*--------------------------------*- C++ -*----------------------------------*\
  =========                 |
  \\      /  F ield         | OpenFOAM: The Open Source CFD Toolbox
   \\    /   O peration     | Website:  https://openfoam.org
    \\  /    A nd           | Version:  6.0
     \\/     M anipulation  |
\*---------------------------------------------------------------------------*/
FoamFile
{
    version     2.0;
    format      ascii;
    class       volScalarField;
    location    "2";
    object      p;
}
// * * * * * * * * * * * * * * * * * * * * * * * * * * * * * * * * * * * * * //

dimensions      [1 -1 -2 0 0 0 0];

internalField   nonuniform List<scalar> 
1200
(
1
1
1
1
1
1
1
1
1
1
3.93367
10.1523
10.7328
10.9187
11.1373
11.3236
11.4938
11.634
11.746
11.8345
1
1
1
1
1
1
1
1
1
1
3.91944
10.1312
10.7271
10.9149
11.1346
11.3202
11.4878
11.6252
11.7357
11.8249
1
1
1
1
1
1
1
1
1
1
3.88762
10.1035
10.7146
10.9047
11.126
11.3116
11.4772
11.612
11.7201
11.8099
1
1
1
1
1
1
1
1
1
1
3.83197
10.067
10.7017
10.8925
11.1134
11.2975
11.4606
11.5927
11.6973
11.7872
1
1
1
1
1
1
1
1
1
1
3.75128
10.0208
10.6864
10.8758
11.0952
11.2774
11.4385
11.569
11.6703
11.7602
1
1
1
1
1
1
1
1
1
1
3.64937
9.96146
10.6721
10.8572
11.0719
11.2516
11.4111
11.5407
11.6383
11.7301
1
1
1
1
1
1
1
1
1
1
3.52804
9.88532
10.6556
10.8348
11.044
11.2202
11.3777
11.5076
11.6022
11.6948
1
1
1
1
1
1
1
1
1
1
3.38632
9.79232
10.6354
10.8096
11.0121
11.1844
11.3408
11.4719
11.5618
11.6504
1
1
1
1
1
1
1
1
1
1
3.22189
9.68183
10.6159
10.7817
10.9777
11.1447
11.2971
11.4268
11.5118
11.6012
1
1
1
1
1
1
1
1
1
1
3.0366
9.54882
10.5911
10.7508
10.94
11.1
11.247
11.3752
11.4546
11.5361
1
1
1
1
1
1
1
1
1
1
2.83548
9.39192
10.5664
10.7208
10.9011
11.0511
11.1888
11.311
11.3831
11.4629
1
1
1
1
1
1
1
1
1
1
2.62784
9.20812
10.5358
10.683
10.8546
10.996
11.1237
11.2385
11.3016
11.3675
1
1
1
1
1
1
1
1
1
1
2.41084
8.99752
10.5214
10.6569
10.8108
10.9336
11.0464
11.1472
11.197
11.2599
1
1
1
1
1
1
1
1
1
1
2.20141
8.74197
10.4738
10.5892
10.7392
10.8596
10.9564
11.0418
11.0774
11.1199
1
1
1
1
1
1
1
1
1
1
1.98674
8.47143
10.4563
10.5506
10.6794
10.782
10.856
10.9134
10.9227
10.9566
1
1
1
1
1
1
1
1
1
1
1.76498
8.1512
10.4276
10.5069
10.6212
10.705
10.7507
10.7761
10.7452
10.7345
1
1
1
1
1
1
1
1
1
1
1.50589
7.8428
10.4258
10.4521
10.5539
10.6236
10.6419
10.6244
10.5195
10.46
1
1
1
1
1
1
1
1
1
1
1.23698
7.54655
10.3636
10.3653
10.4812
10.5369
10.53
10.4644
10.2738
10.0864
1
1
1
1
1
1
1
1
1
1
1.04735
7.18766
10.2977
10.2495
10.398
10.4416
10.4153
10.2964
9.97176
9.5511
1
1
1
1
1
1
1
1
1
1
1.00295
6.65005
10.1056
10.1594
10.3231
10.3458
10.2884
10.1067
9.70959
9.08595
1
1
1
1
1
1
1
1
1
1
1.00005
5.27893
9.82116
9.9901
10.0785
10.0667
9.95467
9.63321
9.01908
7.04448
1
1
1
1
1
1
1
1
1
1
1
2.88904
8.7841
9.76078
9.76972
9.65706
9.42027
8.8994
8.1358
6.45963
1
1
1
1
1
1
1
1
1
1
1
1.21197
6.82966
9.6145
9.45311
9.23628
8.90798
8.37579
7.56962
6.22929
1
1
1
1
1
1
1
1
1
1
1
1.00262
3.90982
8.78956
9.05754
8.77941
8.45738
7.96902
7.17956
6.18283
1
1
1
1
1
1
1
1
1
1
1
0.999988
1.37374
6.77813
8.84873
8.51371
8.16771
7.66172
6.963
6.15349
1
1
1
1
1
1
1
1
1
1
1
0.999998
1.00759
3.3531
7.96948
8.24342
7.8838
7.42448
6.8296
6.15752
1
1
1
1
1
1
1
1
1
1
1
1
1.00001
1.24523
5.37609
8.14824
7.75488
7.31541
6.78276
6.19143
1
1
1
1
1
1
1
1
1
1
1
1
1
1.00339
1.91183
6.39172
7.65675
7.20714
6.73754
6.20528
1
1
1
1
1
1
1
1
1
1
1
1
1
1.00001
1.0405
2.8082
6.70416
7.25493
6.73578
6.25708
1
1
1
1
1
1
1
1
1
1
1
1
1
1
1.00025
1.15422
3.68696
6.69422
6.81048
6.33739
1
1
1
1
1
1
1
1
1
1
1
1
1
1
1
1.00194
1.35899
4.17048
6.44884
6.48864
1
1
1
1
1
1
1
1
1
1
1
1
1
1
1
1
1.00822
1.54705
4.30234
6.19854
1
1
1
1
1
1
1
1
1
1
1
1
1
1
1
1
1.00003
1.01788
1.64939
4.4692
1
1
1
1
1
1
1
1
1
1
1
1
1
1
1
1
1
1.00011
1.02364
1.89019
1
1
1
1
1
1
1
1
1
1
1
1
1
1
1
1
1
1
1.00015
1.04564
1
1
1
1
1
1
1
1
1
1
1
1
1
1
1
1
1
1
1
1.00023
1
1
1
1
1
1
1
1
1
1
1
1
1
1
1
1
1
1
1
1
1
1
1
1
1
1
1
1
1
1
1
1
1
1
1
1
1
1
1
1
1
1
1
1
1
1
1
1
1
1
1
1
1
1
1
1
1
1
1
1
1
1
1
1
1
1
1
1
1
1
1
1
1
1
1
1
1
1
1
1
1.07827
0.926705
1.04191
1.21338
1.27235
1.32166
1.32228
1.31258
1.75985
3.94531
5.0401
5.00344
4.49844
4.07257
3.71222
3.40264
3.10782
2.83419
2.59674
2.24734
2.65654
1.25716
1.05695
1.14738
1.26249
1.31404
1.29731
1.33001
1.94476
3.51865
4.74882
4.79321
4.41876
4.03787
3.697
3.38438
3.09219
2.82887
2.60051
2.25553
3.35101
1.5989
1.07272
1.14528
1.27701
1.31574
1.28774
1.43562
2.19099
3.00454
4.28438
4.7977
4.47448
4.05539
3.67508
3.34723
3.0553
2.80643
2.59491
2.25343
3.86756
2.13244
1.25403
1.18682
1.21227
1.26505
1.28362
1.68782
2.59335
2.69694
3.41507
4.21817
4.3452
4.03995
3.64847
3.32503
3.04891
2.80255
2.59263
2.2579
4.26183
2.55924
1.50488
1.27649
1.17312
1.20053
1.30109
2.07102
2.93061
2.77103
2.78359
3.39383
3.96174
3.93763
3.65955
3.33249
3.04197
2.78315
2.56648
2.23921
4.56821
2.89543
1.84327
1.46422
1.20199
1.17676
1.40387
2.4374
2.97823
2.83796
2.56288
2.60715
3.23352
3.67634
3.59624
3.34975
3.0557
2.77479
2.54842
2.22893
4.83068
3.16374
2.17484
1.65397
1.23665
1.20168
1.68778
2.71667
2.91408
2.77724
2.48887
2.26889
2.47251
3.09285
3.40756
3.29986
3.06555
2.78764
2.54059
2.21505
5.02653
3.3693
2.48985
1.86033
1.35163
1.35531
2.1504
2.82458
2.82441
2.65972
2.41307
2.20149
2.09494
2.39794
2.98091
3.11721
3.01031
2.7817
2.5403
2.21366
5.20781
3.55428
2.79749
2.03265
1.51959
1.66412
2.63499
2.861
2.75988
2.54089
2.3404
2.15773
2.01463
1.97008
2.32183
2.83431
2.84456
2.72144
2.52251
2.22025
5.32327
3.78191
3.05935
2.18359
1.71664
2.29079
3.18667
2.96269
2.69429
2.44703
2.25359
2.13462
1.96946
1.8187
1.83665
2.20368
2.61592
2.59439
2.48142
2.21338
5.41945
4.05041
3.25304
2.32646
2.01501
3.16027
3.49245
3.13511
2.72962
2.42916
2.20034
2.04472
1.91446
1.75045
1.6304
1.68578
2.0457
2.37727
2.37887
2.20942
5.57443
4.37692
3.36126
2.4838
2.65897
4.04995
3.75407
3.24187
2.76812
2.41997
2.15638
1.96738
1.81537
1.68364
1.55752
1.45794
1.53327
1.85684
2.18254
2.11722
5.60432
4.68167
3.39431
2.72156
3.75447
4.65066
4.07755
3.38429
2.83883
2.44001
2.14319
1.91913
1.74095
1.60791
1.49576
1.39012
1.3016
1.38015
1.72953
1.92696
5.35441
4.8684
3.44007
3.18768
5.15152
5.03259
4.31071
3.50825
2.90943
2.4698
2.13867
1.88961
1.69188
1.54799
1.43927
1.33285
1.23315
1.17552
1.26687
1.62299
4.70552
4.55318
3.57014
4.33278
6.24433
5.38534
4.44834
3.62597
2.99723
2.5216
2.16277
1.88841
1.67461
1.50726
1.38982
1.28548
1.1876
1.11257
1.07799
1.27388
3.30187
4.28004
3.81565
6.25525
6.92608
5.69756
4.55935
3.71221
3.07555
2.58463
2.20724
1.90228
1.66739
1.48525
1.36635
1.24868
1.14984
1.07267
1.02442
1.03896
2.42907
3.98427
4.81454
7.90446
7.19422
5.84795
4.64854
3.78192
3.13537
2.63036
2.24481
1.92442
1.66631
1.4703
1.32257
1.20114
1.10967
1.04194
0.990645
0.948612
1.58051
3.4422
6.71588
9.3713
7.46508
5.9509
4.73048
3.85231
3.19865
2.68732
2.29311
1.96322
1.68411
1.48305
1.31529
1.18847
1.09544
1.02414
0.966075
0.89754
1.10398
2.88618
8.3476
9.75193
7.67938
5.95962
4.749
3.88563
3.22312
2.71153
2.28833
1.98444
1.76381
1.55992
1.37026
1.22147
1.114
1.02371
0.955947
0.880384
1.00092
3.57458
10.3383
10.5119
7.93952
5.92339
4.73076
3.90732
3.25671
2.72942
2.31864
1.99085
1.71228
1.50043
1.31339
1.17186
1.06946
0.982235
0.919314
0.857815
)
;

boundaryField
{
    inlet
    {
        type            fixedValue;
        value           uniform 1;
    }
    outlet
    {
        type            zeroGradient;
    }
    bottom
    {
        type            symmetryPlane;
    }
    top
    {
        type            symmetryPlane;
    }
    obstacle
    {
        type            zeroGradient;
    }
    defaultFaces
    {
        type            empty;
    }
}


// ************************************************************************* //
