/*--------------------------------*- C++ -*----------------------------------*\
  =========                 |
  \\      /  F ield         | OpenFOAM: The Open Source CFD Toolbox
   \\    /   O peration     | Website:  https://openfoam.org
    \\  /    A nd           | Version:  6.0
     \\/     M anipulation  |
\*---------------------------------------------------------------------------*/
FoamFile
{
    version     2.0;
    format      ascii;
    class       volScalarField;
    location    "2";
    object      rho;
}
// * * * * * * * * * * * * * * * * * * * * * * * * * * * * * * * * * * * * * //

dimensions      [1 -3 0 0 0 0 0];

internalField   nonuniform List<scalar> 
1200
(
1.39997
1.39997
1.39997
1.39997
1.39997
1.39997
1.39997
1.39997
1.39997
1.39997
2.87814
5.28364
5.49384
5.55367
5.62038
5.67159
5.72107
5.76815
5.81007
5.84322
1.39997
1.39997
1.39997
1.39997
1.39997
1.39997
1.39997
1.39997
1.39997
1.39997
2.8684
5.27211
5.48996
5.55106
5.61866
5.67003
5.71888
5.7651
5.80646
5.83986
1.39997
1.39997
1.39997
1.39997
1.39997
1.39997
1.39997
1.39997
1.39997
1.39997
2.84928
5.25452
5.48029
5.54378
5.61342
5.66609
5.71505
5.7606
5.80106
5.83461
1.39997
1.39997
1.39997
1.39997
1.39997
1.39997
1.39997
1.39997
1.39997
1.39997
2.82128
5.2342
5.46804
5.53391
5.60585
5.65991
5.70912
5.75404
5.79314
5.82657
1.39997
1.39997
1.39997
1.39997
1.39997
1.39997
1.39997
1.39997
1.39997
1.39997
2.78444
5.2128
5.45514
5.52256
5.59625
5.65169
5.70149
5.74608
5.78367
5.81689
1.39997
1.39997
1.39997
1.39997
1.39997
1.39997
1.39997
1.39997
1.39997
1.39997
2.73822
5.18889
5.44507
5.51196
5.5855
5.64209
5.6925
5.73665
5.77233
5.80596
1.39997
1.39997
1.39997
1.39997
1.39997
1.39997
1.39997
1.39997
1.39997
1.39997
2.68183
5.16087
5.43643
5.50197
5.57498
5.63197
5.68216
5.72574
5.75945
5.79297
1.39997
1.39997
1.39997
1.39997
1.39997
1.39997
1.39997
1.39997
1.39997
1.39997
2.61548
5.12952
5.4298
5.49445
5.56624
5.62239
5.67157
5.71412
5.74492
5.77659
1.39997
1.39997
1.39997
1.39997
1.39997
1.39997
1.39997
1.39997
1.39997
1.39997
2.53961
5.09631
5.42918
5.4912
5.56061
5.61388
5.65958
5.69933
5.72684
5.7583
1.39997
1.39997
1.39997
1.39997
1.39997
1.39997
1.39997
1.39997
1.39997
1.39997
2.45546
5.06022
5.43183
5.49129
5.55712
5.60563
5.64612
5.68233
5.7061
5.73423
1.39997
1.39997
1.39997
1.39997
1.39997
1.39997
1.39997
1.39997
1.39997
1.39997
2.3634
5.01916
5.43821
5.49363
5.55468
5.59662
5.62992
5.66072
5.6801
5.70717
1.39997
1.39997
1.39997
1.39997
1.39997
1.39997
1.39997
1.39997
1.39997
1.39997
2.26532
4.96849
5.44251
5.49241
5.54839
5.58447
5.61056
5.63575
5.65044
5.67217
1.39997
1.39997
1.39997
1.39997
1.39997
1.39997
1.39997
1.39997
1.39997
1.39997
2.16151
4.9047
5.44989
5.49376
5.54052
5.56699
5.58523
5.60352
5.61239
5.63276
1.39997
1.39997
1.39997
1.39997
1.39997
1.39997
1.39997
1.39997
1.39997
1.39997
2.05631
4.81417
5.43778
5.47331
5.51719
5.54138
5.5529
5.56522
5.56874
5.58168
1.39997
1.39997
1.39997
1.39997
1.39997
1.39997
1.39997
1.39997
1.39997
1.39997
1.94241
4.71205
5.43
5.45478
5.49112
5.5099
5.51408
5.51762
5.51239
5.52213
1.39997
1.39997
1.39997
1.39997
1.39997
1.39997
1.39997
1.39997
1.39997
1.39997
1.83673
4.6122
5.42365
5.43528
5.46347
5.47549
5.47142
5.46582
5.44753
5.44104
1.39997
1.39997
1.39997
1.39997
1.39997
1.39997
1.39997
1.39997
1.39997
1.39997
1.71679
4.55413
5.44075
5.41783
5.43435
5.43891
5.42732
5.40887
5.36453
5.34089
1.39997
1.39997
1.39997
1.39997
1.39997
1.39997
1.39997
1.39997
1.39997
1.39997
1.57512
4.5003
5.44747
5.39907
5.41004
5.40337
5.38301
5.34923
5.27469
5.20847
1.39997
1.39997
1.39997
1.39997
1.39997
1.39997
1.39997
1.39997
1.39997
1.39997
1.44316
4.35313
5.4535
5.37896
5.39208
5.3723
5.34034
5.28599
5.16285
5.01464
1.39997
1.39997
1.39997
1.39997
1.39997
1.39997
1.39997
1.39997
1.39997
1.39997
1.40295
4.08732
5.39532
5.36401
5.38335
5.35052
5.29917
5.21595
5.05416
4.79084
1.39997
1.39997
1.39997
1.39997
1.39997
1.39997
1.39997
1.39997
1.39997
1.39997
1.40002
3.48947
5.26215
5.31068
5.31857
5.28189
5.20641
5.05818
4.78134
3.81288
1.39997
1.39997
1.39997
1.39997
1.39997
1.39997
1.39997
1.39997
1.39997
1.39997
1.39997
2.43541
4.9048
5.2342
5.21957
5.16241
5.04861
4.81866
4.47581
3.69332
1.39997
1.39997
1.39997
1.39997
1.39997
1.39997
1.39997
1.39997
1.39997
1.39997
1.39997
1.55686
4.20965
5.20187
5.1209
5.01888
4.87433
4.64566
4.29646
3.70017
1.39997
1.39997
1.39997
1.39997
1.39997
1.39997
1.39997
1.39997
1.39997
1.39997
1.39997
1.40202
2.9571
4.96691
4.97677
4.85895
4.71791
4.50744
4.16844
3.72847
1.39997
1.39997
1.39997
1.39997
1.39997
1.39997
1.39997
1.39997
1.39997
1.39997
1.39997
1.39996
1.66302
4.27749
4.96623
4.80867
4.64289
4.41405
4.10615
3.74493
1.39997
1.39997
1.39997
1.39997
1.39997
1.39997
1.39997
1.39997
1.39997
1.39997
1.39997
1.39997
1.40614
2.74878
4.77167
4.7483
4.57789
4.36256
4.091
3.78083
1.39997
1.39997
1.39997
1.39997
1.39997
1.39997
1.39997
1.39997
1.39997
1.39997
1.39997
1.39997
1.39997
1.58183
3.72978
4.79178
4.59967
4.38335
4.12674
3.84252
1.39997
1.39997
1.39997
1.39997
1.39997
1.39997
1.39997
1.39997
1.39997
1.39997
1.39997
1.39997
1.39997
1.40283
2.00482
4.21382
4.63075
4.41394
4.17807
3.91029
1.39997
1.39997
1.39997
1.39997
1.39997
1.39997
1.39997
1.39997
1.39997
1.39997
1.39997
1.39997
1.39997
1.39998
1.43303
2.52235
4.38659
4.49907
4.24977
4.00345
1.39997
1.39997
1.39997
1.39997
1.39997
1.39997
1.39997
1.39997
1.39997
1.39997
1.39997
1.39997
1.39997
1.39997
1.4002
1.52028
2.99779
4.38203
4.34615
4.10527
1.39997
1.39997
1.39997
1.39997
1.39997
1.39997
1.39997
1.39997
1.39997
1.39997
1.39997
1.39997
1.39997
1.39997
1.39997
1.4017
1.66473
3.26482
4.28855
4.2435
1.39997
1.39997
1.39997
1.39997
1.39997
1.39997
1.39997
1.39997
1.39997
1.39997
1.39997
1.39997
1.39997
1.39997
1.39997
1.39997
1.4071
1.79368
3.36396
4.18219
1.39997
1.39997
1.39997
1.39997
1.39997
1.39997
1.39997
1.39997
1.39997
1.39997
1.39997
1.39997
1.39997
1.39997
1.39997
1.39997
1.4
1.41537
1.87078
3.42046
1.39997
1.39997
1.39997
1.39997
1.39997
1.39997
1.39997
1.39997
1.39997
1.39997
1.39997
1.39997
1.39997
1.39997
1.39997
1.39997
1.39997
1.40007
1.42027
2.00577
1.39997
1.39997
1.39997
1.39997
1.39997
1.39997
1.39997
1.39997
1.39997
1.39997
1.39997
1.39997
1.39997
1.39997
1.39997
1.39997
1.39997
1.39997
1.40011
1.43788
1.39997
1.39997
1.39997
1.39997
1.39997
1.39997
1.39997
1.39997
1.39997
1.39997
1.39997
1.39997
1.39997
1.39997
1.39997
1.39997
1.39997
1.39997
1.39997
1.40017
1.39997
1.39997
1.39997
1.39997
1.39997
1.39997
1.39997
1.39997
1.39997
1.39997
1.39997
1.39997
1.39997
1.39997
1.39997
1.39997
1.39997
1.39997
1.39997
1.39997
1.39997
1.39997
1.39997
1.39997
1.39997
1.39997
1.39997
1.39997
1.39997
1.39997
1.39997
1.39997
1.39997
1.39997
1.39997
1.39997
1.39997
1.39997
1.39997
1.39997
1.39997
1.39997
1.39997
1.39997
1.39997
1.39997
1.39997
1.39997
1.39997
1.39997
1.39997
1.39997
1.39997
1.39997
1.39997
1.39997
1.39997
1.39997
1.39997
1.39997
1.39997
1.39997
1.39997
1.39997
1.39997
1.39997
1.39997
1.39997
1.39997
1.39997
1.39997
1.39997
1.39997
1.39997
1.39997
1.39997
1.39997
1.39997
1.39997
1.39997
0.865075
0.762505
0.835
0.93436
0.959664
0.987224
0.991283
0.993497
1.22894
2.19438
2.6248
2.65015
2.49448
2.34358
2.20113
2.06896
1.93657
1.81016
1.70012
1.53645
1.77448
0.998823
0.881173
0.930394
0.985906
1.00994
1.00154
1.02355
1.35601
2.1093
2.60187
2.6529
2.5232
2.37276
2.22813
2.08858
1.95275
1.82716
1.71813
1.55231
2.28129
1.28842
0.952972
0.993318
1.06198
1.07258
1.05302
1.13955
1.56329
2.01958
2.60564
2.82548
2.67816
2.48533
2.30468
2.14514
1.99883
1.87117
1.76268
1.58737
2.62793
1.68044
1.13315
1.07532
1.08546
1.10918
1.11712
1.35485
1.86678
1.95176
2.3395
2.72744
2.75556
2.59889
2.39982
2.23172
2.08339
1.94823
1.83257
1.64759
2.87012
1.97078
1.33567
1.17699
1.09564
1.11151
1.17377
1.6196
2.1047
2.03906
2.07129
2.39495
2.67553
2.63826
2.49134
2.3196
2.16184
2.0164
1.89227
1.70178
3.04339
2.17921
1.57032
1.3246
1.13599
1.11798
1.26809
1.84233
2.16838
2.1081
1.97727
2.01184
2.35057
2.57477
2.52303
2.38706
2.22956
2.07315
1.94253
1.75214
3.19456
2.33791
1.78014
1.45726
1.17455
1.14875
1.4583
2.01926
2.16396
2.10253
1.95812
1.84692
1.9674
2.31506
2.47415
2.41094
2.2805
2.12532
1.98315
1.78788
3.32909
2.46715
1.97348
1.59421
1.26325
1.26574
1.72763
2.11185
2.12968
2.05917
1.93743
1.82728
1.77735
1.96061
2.29041
2.3578
2.29308
2.15993
2.01915
1.82175
3.46535
2.59305
2.16397
1.71126
1.38366
1.47208
2.00509
2.15579
2.11529
2.0143
1.91802
1.82281
1.74788
1.73379
1.94963
2.24576
2.24148
2.16485
2.04378
1.85691
3.57423
2.74725
2.3342
1.82003
1.52171
1.84333
2.3305
2.22713
2.10152
1.98463
1.88945
1.83149
1.74163
1.65646
1.67978
1.912
2.155
2.13201
2.05746
1.88591
3.67818
2.92722
2.47266
1.92786
1.72228
2.31662
2.52083
2.34856
2.14861
1.99763
1.87823
1.79636
1.7271
1.63207
1.56486
1.60908
1.84695
2.04938
2.0347
1.92079
3.82192
3.14466
2.56638
2.0397
2.12344
2.81528
2.68462
2.44016
2.19965
2.01554
1.87199
1.76876
1.68407
1.60869
1.53455
1.47826
1.53547
1.75777
1.95725
1.9027
3.89208
3.37091
2.63125
2.20384
2.71715
3.15961
2.89462
2.55288
2.26876
2.0531
1.88814
1.7617
1.65846
1.58017
1.51338
1.44877
1.394
1.45322
1.69938
1.81679
3.80052
3.52046
2.71564
2.50365
3.42289
3.38601
3.05653
2.65669
2.34185
2.1024
1.91533
1.76987
1.65034
1.56239
1.49467
1.42585
1.35869
1.31896
1.38909
1.63701
3.42849
3.35597
2.80433
3.1474
3.99763
3.61314
3.17108
2.76161
2.43333
2.1733
1.96689
1.80093
1.6659
1.55647
1.47777
1.40656
1.33663
1.28055
1.25512
1.40316
2.67543
3.19893
2.94343
4.0575
4.3765
3.82277
3.28625
2.86476
2.53036
2.25703
2.03421
1.84222
1.68646
1.56049
1.47684
1.39077
1.31602
1.25564
1.21775
1.22962
2.34513
3.08582
3.47611
4.85964
4.58009
3.98407
3.41308
2.97179
2.62132
2.32938
2.09344
1.88397
1.70502
1.5628
1.454
1.36077
1.28839
1.23387
1.19212
1.15845
1.9135
2.93582
4.47186
5.64017
4.83175
4.1426
3.5395
3.07396
2.70577
2.39966
2.14973
1.92912
1.73173
1.58269
1.45412
1.35361
1.27831
1.21985
1.17185
1.11487
1.50111
2.73248
5.47436
5.98592
5.0532
4.22752
3.60437
3.13148
2.74708
2.43392
2.1593
1.952
1.79487
1.64465
1.49902
1.381
1.29405
1.21987
1.16358
1.10017
1.40077
3.22727
6.54883
6.40946
5.22118
4.23728
3.61327
3.15663
2.77569
2.45088
2.18376
1.95857
1.75822
1.60032
1.45534
1.34175
1.25775
1.18502
1.13192
1.08011
)
;

boundaryField
{
    inlet
    {
        type            calculated;
        value           uniform 1.39997;
    }
    outlet
    {
        type            calculated;
        value           nonuniform List<scalar> 
20
(
1.53665
1.55254
1.5876
1.64776
1.70193
1.75228
1.78803
1.8219
1.8569
1.88586
1.92099
1.90338
1.81753
1.63843
1.40457
1.23024
1.15866
1.11506
1.10039
1.08034
)
;
    }
    bottom
    {
        type            symmetryPlane;
    }
    top
    {
        type            symmetryPlane;
    }
    obstacle
    {
        type            calculated;
        value           nonuniform List<scalar> 
40
(
5.84322
5.83986
5.83461
5.82657
5.81689
5.80596
5.79297
5.77659
5.7583
5.73423
5.70717
5.67217
5.63276
5.58168
5.52213
5.44104
5.34089
5.20847
5.01464
4.79084
0.865075
0.762505
0.835
0.93436
0.959664
0.987224
0.991283
0.993497
1.22894
2.19438
2.6248
2.65015
2.49448
2.34358
2.20113
2.06896
1.93657
1.81016
1.70012
1.53645
)
;
    }
    defaultFaces
    {
        type            empty;
    }
}


// ************************************************************************* //
