/*--------------------------------*- C++ -*----------------------------------*\
  =========                 |
  \\      /  F ield         | OpenFOAM: The Open Source CFD Toolbox
   \\    /   O peration     | Website:  https://openfoam.org
    \\  /    A nd           | Version:  6.0
     \\/     M anipulation  |
\*---------------------------------------------------------------------------*/
FoamFile
{
    version     2.0;
    format      ascii;
    class       volScalarField;
    location    "2";
    object      T;
}
// * * * * * * * * * * * * * * * * * * * * * * * * * * * * * * * * * * * * * //

dimensions      [0 0 0 1 0 0 0];

internalField   nonuniform List<scalar> 
1200
(
1
1
1
1
1
1
1
1
1
1
1.9134
2.68999
2.73498
2.7524
2.77418
2.79511
2.81258
2.82364
2.83026
2.8354
1
1
1
1
1
1
1
1
1
1
1.91294
2.69026
2.73546
2.75273
2.77435
2.79503
2.81218
2.823
2.82953
2.83474
1
1
1
1
1
1
1
1
1
1
1.91014
2.69188
2.7371
2.75377
2.77478
2.79484
2.81148
2.82201
2.8284
2.8337
1
1
1
1
1
1
1
1
1
1
1.90149
2.69258
2.73992
2.75558
2.77538
2.79443
2.81033
2.82053
2.82677
2.83215
1
1
1
1
1
1
1
1
1
1
1.88608
2.69121
2.74248
2.75702
2.77559
2.79351
2.80865
2.81867
2.82486
2.83036
1
1
1
1
1
1
1
1
1
1
1.86581
2.68761
2.74387
2.7576
2.77509
2.79185
2.80635
2.81638
2.82264
2.82844
1
1
1
1
1
1
1
1
1
1
1.84171
2.68155
2.74399
2.7569
2.77334
2.78908
2.80323
2.81366
2.82018
2.82624
1
1
1
1
1
1
1
1
1
1
1.81258
2.67256
2.74213
2.75424
2.76966
2.7849
2.79936
2.81064
2.81748
2.82351
1
1
1
1
1
1
1
1
1
1
1.77607
2.65962
2.73741
2.74877
2.76381
2.77922
2.79447
2.80685
2.81414
2.82051
1
1
1
1
1
1
1
1
1
1
1.7313
2.64179
2.72969
2.74083
2.75604
2.77216
2.78872
2.80254
2.81035
2.81645
1
1
1
1
1
1
1
1
1
1
1.67961
2.61964
2.72013
2.73202
2.74745
2.76437
2.78227
2.79736
2.80557
2.81184
1
1
1
1
1
1
1
1
1
1
1.62401
2.59456
2.7101
2.72302
2.73883
2.7566
2.77562
2.79173
2.80011
2.80564
1
1
1
1
1
1
1
1
1
1
1.56146
2.5682
2.70273
2.71568
2.73164
2.74954
2.76884
2.785
2.79302
2.79855
1
1
1
1
1
1
1
1
1
1
1.49875
2.54218
2.6965
2.70852
2.72505
2.74355
2.76227
2.77763
2.78484
2.78903
1
1
1
1
1
1
1
1
1
1
1.43192
2.51689
2.69585
2.70782
2.72274
2.73953
2.75624
2.76902
2.77402
2.77773
1
1
1
1
1
1
1
1
1
1
1.34528
2.47418
2.69161
2.70628
2.72159
2.73706
2.75077
2.7601
2.76143
2.76195
1
1
1
1
1
1
1
1
1
1
1.22799
2.41092
2.68268
2.70082
2.71883
2.73449
2.74505
2.74989
2.74524
2.74179
1
1
1
1
1
1
1
1
1
1
1.09943
2.34761
2.66338
2.68771
2.71224
2.73003
2.73857
2.73868
2.7268
2.7111
1
1
1
1
1
1
1
1
1
1
1.01601
2.31156
2.64352
2.66762
2.69967
2.72098
2.73037
2.72696
2.70396
2.66644
1
1
1
1
1
1
1
1
1
1
1.00081
2.27774
2.6222
2.65154
2.68457
2.70699
2.71806
2.71266
2.68949
2.65507
1
1
1
1
1
1
1
1
1
1
1.00001
2.1179
2.61287
2.63353
2.65288
2.66818
2.67674
2.66622
2.64077
2.58651
1
1
1
1
1
1
1
1
1
1
1
1.66073
2.50723
2.61067
2.62039
2.61885
2.61222
2.58555
2.54476
2.44855
1
1
1
1
1
1
1
1
1
1
1
1.08984
2.27129
2.58753
2.58432
2.57637
2.55848
2.52404
2.4665
2.35687
1
1
1
1
1
1
1
1
1
1
1
1.00116
1.85101
2.47742
2.54789
2.52954
2.5096
2.4751
2.41125
2.32153
1
1
1
1
1
1
1
1
1
1
1
0.999997
1.15645
2.21839
2.49444
2.47863
2.46281
2.43001
2.374
2.30036
1
1
1
1
1
1
1
1
1
1
1
0.999999
1.00317
1.70775
2.33818
2.43046
2.41095
2.38255
2.33714
2.28001
1
1
1
1
1
1
1
1
1
1
1
1
1
1.10206
2.01791
2.38059
2.3603
2.33642
2.301
2.25576
1
1
1
1
1
1
1
1
1
1
1
1
1
1.00134
1.33504
2.12354
2.31479
2.28589
2.25758
2.22162
1
1
1
1
1
1
1
1
1
1
1
1
1
1
1.0165
1.55862
2.13961
2.25751
2.21891
2.18804
1
1
1
1
1
1
1
1
1
1
1
1
1
1
1.00008
1.06288
1.72181
2.13866
2.19377
2.16116
1
1
1
1
1
1
1
1
1
1
1
1
1
1
1
1.0007
1.14285
1.78832
2.10518
2.14066
1
1
1
1
1
1
1
1
1
1
1
1
1
1
1
1
1.00311
1.20748
1.79049
2.07493
1
1
1
1
1
1
1
1
1
1
1
1
1
1
1
1
1.00001
1.0068
1.2343
1.82921
1
1
1
1
1
1
1
1
1
1
1
1
1
1
1
1
1
1.00003
1.00901
1.3193
1
1
1
1
1
1
1
1
1
1
1
1
1
1
1
1
1
1
1.00005
1.01807
1
1
1
1
1
1
1
1
1
1
1
1
1
1
1
1
1
1
1
1.00008
1
1
1
1
1
1
1
1
1
1
1
1
1
1
1
1
1
1
1
1
1
1
1
1
1
1
1
1
1
1
1
1
1
1
1
1
1
1
1
1
1
1
1
1
1
1
1
1
1
1
1
1
1
1
1
1
1
1
1
1
1
1
1
1
1
1
1
1
1
1
1
1
1
1
1
1
1
1
1
1
1.74499
1.70144
1.74688
1.81803
1.85612
1.87422
1.86742
1.8496
2.00476
2.51703
2.6882
2.64312
2.52465
2.43281
2.36105
2.30241
2.24668
2.19195
2.13829
2.04772
2.09587
1.76205
1.67923
1.72646
1.79272
1.82151
1.8134
1.81912
2.00781
2.33537
2.55516
2.52944
2.4517
2.38241
2.32288
2.26854
2.21685
2.16748
2.11895
2.03418
2.05642
1.73734
1.57589
1.61414
1.68344
1.71736
1.71202
1.7637
1.96209
2.08274
2.30193
2.37716
2.33897
2.28437
2.23242
2.18448
2.13992
2.09971
2.06095
1.9874
2.06036
1.77653
1.54931
1.54514
1.56352
1.59671
1.60862
1.74403
1.94485
1.93447
2.0436
2.16514
2.20759
2.17624
2.12838
2.08581
2.04876
2.01387
1.98061
1.91855
2.07881
1.81799
1.57733
1.51833
1.49897
1.51209
1.55183
1.79018
1.94933
1.90252
1.8814
1.98386
2.07297
2.08947
2.05643
2.01129
1.96992
1.93232
1.89877
1.84209
2.10139
1.86008
1.64332
1.54753
1.4813
1.47359
1.54987
1.85216
1.92283
1.88465
1.8146
1.81422
1.92584
1.99892
1.99547
1.96457
1.91871
1.87377
1.83663
1.78093
2.11698
1.89448
1.71038
1.58894
1.47398
1.46447
1.62027
1.88349
1.88525
1.84923
1.77942
1.71982
1.75939
1.87032
1.92813
1.91614
1.8819
1.83624
1.79348
1.73446
2.11379
1.91189
1.76627
1.63367
1.49791
1.49904
1.74256
1.87245
1.85665
1.80826
1.74366
1.68667
1.65012
1.71224
1.82202
1.85088
1.83785
1.80297
1.76131
1.70114
2.10391
1.91893
1.80982
1.66289
1.5375
1.5826
1.83977
1.85794
1.82658
1.76596
1.70826
1.6572
1.61362
1.59076
1.66724
1.76686
1.77664
1.7599
1.72789
1.6739
2.08504
1.92722
1.83488
1.67962
1.5793
1.7398
1.91428
1.86234
1.79485
1.72615
1.66977
1.63168
1.5831
1.53709
1.53071
1.61354
1.6994
1.70359
1.68845
1.64306
2.06272
1.93714
1.84181
1.68942
1.63792
1.9098
1.93957
1.86883
1.77853
1.70239
1.64006
1.59353
1.55184
1.50151
1.4586
1.4667
1.55062
1.62396
1.63677
1.61033
2.04192
1.94856
1.83358
1.70478
1.75304
2.01394
1.95766
1.85992
1.76177
1.68088
1.61265
1.55718
1.50912
1.4652
1.42092
1.38072
1.39797
1.47887
1.56112
1.55781
2.01586
1.94434
1.80596
1.72885
1.93443
2.06063
1.97209
1.8559
1.75174
1.6638
1.58908
1.52508
1.4696
1.42454
1.38367
1.34329
1.30718
1.32958
1.42481
1.48486
1.97236
1.936
1.77343
1.78246
2.10698
2.08076
1.97441
1.84871
1.73927
1.64462
1.56322
1.49469
1.43521
1.38707
1.34808
1.30865
1.27062
1.24772
1.27679
1.38798
1.92142
1.89939
1.78227
1.92723
2.18676
2.08664
1.96386
1.83815
1.7244
1.62433
1.53939
1.46797
1.4073
1.35571
1.31665
1.27945
1.24387
1.21632
1.2024
1.27099
1.72777
1.8731
1.81482
2.15826
2.21554
2.08655
1.94232
1.81411
1.7016
1.60317
1.51905
1.44561
1.38414
1.33247
1.29523
1.25694
1.22319
1.19596
1.17771
1.1829
1.45008
1.80758
1.93901
2.27712
2.19902
2.05492
1.90673
1.78161
1.67451
1.58086
1.50119
1.43002
1.36818
1.3171
1.27342
1.23575
1.20576
1.18221
1.16337
1.14639
1.15634
1.64144
2.10249
2.32609
2.16296
2.01107
1.87104
1.75445
1.65499
1.56779
1.49334
1.42472
1.36147
1.31184
1.2663
1.22917
1.1997
1.17537
1.15414
1.12707
1.02959
1.47872
2.13475
2.28075
2.12754
1.97356
1.84455
1.73712
1.64257
1.55965
1.48362
1.42323
1.37574
1.32785
1.27972
1.23825
1.20518
1.17485
1.15016
1.12029
1.00035
1.55063
2.21006
2.29604
2.12885
1.95705
1.83294
1.7329
1.64258
1.55907
1.48644
1.42304
1.36339
1.31258
1.26342
1.22271
1.19039
1.1604
1.13702
1.11185
)
;

boundaryField
{
    inlet
    {
        type            fixedValue;
        value           uniform 1;
    }
    outlet
    {
        type            inletOutlet;
        inletValue      uniform 1;
        value           nonuniform List<scalar> 
20
(
2.04744
2.03388
1.98711
1.91835
1.84192
1.78078
1.73431
1.701
1.67391
1.6431
1.61017
1.55725
1.48425
1.38677
1.26971
1.1823
1.14618
1.12687
1.12006
1.11161
)
;
    }
    bottom
    {
        type            symmetryPlane;
    }
    top
    {
        type            symmetryPlane;
    }
    obstacle
    {
        type            zeroGradient;
    }
    defaultFaces
    {
        type            empty;
    }
}


// ************************************************************************* //
