/*--------------------------------*- C++ -*----------------------------------*\
  =========                 |
  \\      /  F ield         | OpenFOAM: The Open Source CFD Toolbox
   \\    /   O peration     | Website:  https://openfoam.org
    \\  /    A nd           | Version:  6.0
     \\/     M anipulation  |
\*---------------------------------------------------------------------------*/
FoamFile
{
    version     2.0;
    format      ascii;
    class       volVectorField;
    location    "2";
    object      U;
}
// * * * * * * * * * * * * * * * * * * * * * * * * * * * * * * * * * * * * * //

dimensions      [0 1 -1 0 0 0 0];

internalField   nonuniform List<vector> 
1200
(
(3 1.5902e-15 0)
(3 -1.24944e-15 0)
(3 -2.32334e-15 0)
(3 -2.08584e-15 0)
(3 -8.46729e-16 0)
(3 3.61409e-16 0)
(3 9.29337e-17 0)
(3 -3.40757e-16 0)
(3 -2.27171e-16 0)
(3 -7.02166e-16 0)
(1.7366 0.0063347 0)
(0.763008 0.0078901 0)
(0.663246 0.00996241 0)
(0.59777 0.0112575 0)
(0.521555 0.0127873 0)
(0.439213 0.0142048 0)
(0.351685 0.0148233 0)
(0.260173 0.0154983 0)
(0.162634 0.016261 0)
(0.0616677 0.0184876 0)
(3 5.67928e-16 0)
(3 -1.0326e-16 0)
(3 -3.71735e-15 0)
(3 -2.72605e-15 0)
(3 -1.94128e-15 0)
(3 2.40595e-15 0)
(3 3.51083e-16 0)
(3 -1.05325e-15 0)
(3 -7.02166e-16 0)
(3 -6.81514e-16 0)
(1.73256 0.0217114 0)
(0.755626 0.0247647 0)
(0.653681 0.0280169 0)
(0.587419 0.0317684 0)
(0.510703 0.0362583 0)
(0.42876 0.040712 0)
(0.343046 0.04326 0)
(0.254572 0.0462021 0)
(0.160144 0.049092 0)
(0.0615954 0.0561789 0)
(3 7.22817e-17 0)
(3 1.34238e-16 0)
(3 -3.12877e-15 0)
(3 -8.67381e-16 0)
(3 -8.77707e-16 0)
(3 1.3527e-15 0)
(3 -1.49726e-15 0)
(3 -2.16845e-16 0)
(3 2.47823e-16 0)
(3 7.22817e-17 0)
(1.73715 0.0416455 0)
(0.750158 0.0434233 0)
(0.643415 0.0474162 0)
(0.575208 0.0533764 0)
(0.497617 0.0605362 0)
(0.415877 0.0672334 0)
(0.331492 0.0706756 0)
(0.245702 0.0753201 0)
(0.154802 0.080451 0)
(0.0605108 0.0929927 0)
(3 1.75541e-16 0)
(3 4.54342e-16 0)
(3 6.09232e-16 0)
(3 -7.22817e-16 0)
(3 1.36303e-15 0)
(3 -1.30107e-15 0)
(3 -2.62279e-15 0)
(3 -9.80967e-16 0)
(3 2.47823e-16 0)
(3 1.5902e-15 0)
(1.75363 0.0647768 0)
(0.748917 0.0649381 0)
(0.635255 0.0683524 0)
(0.563247 0.0755268 0)
(0.48401 0.0847197 0)
(0.402603 0.093233 0)
(0.319751 0.0973028 0)
(0.236171 0.103368 0)
(0.147947 0.110506 0)
(0.0584184 0.128664 0)
(3 5.16298e-17 0)
(3 1.44563e-15 0)
(3 4.69831e-15 0)
(3 2.58149e-15 0)
(3 -7.84773e-16 0)
(3 -3.14942e-15 0)
(3 -4.02713e-16 0)
(3 -1.27009e-15 0)
(3 5.57602e-16 0)
(3 2.95323e-15 0)
(1.78296 0.0876475 0)
(0.752564 0.0882879 0)
(0.631654 0.0915404 0)
(0.555567 0.0996787 0)
(0.473885 0.109786 0)
(0.392427 0.119184 0)
(0.311235 0.12345 0)
(0.229945 0.131015 0)
(0.143398 0.139922 0)
(0.0570784 0.163066 0)
(3 2.06519e-17 0)
(3 1.01194e-15 0)
(3 4.17169e-15 0)
(3 3.66572e-15 0)
(3 1.78639e-15 0)
(3 -2.17878e-15 0)
(3 2.83964e-15 0)
(3 4.21299e-15 0)
(3 7.80643e-15 0)
(3 3.63474e-15 0)
(1.82092 0.109251 0)
(0.75734 0.113072 0)
(0.630464 0.11598 0)
(0.552041 0.124755 0)
(0.469271 0.135592 0)
(0.388796 0.14537 0)
(0.309947 0.149511 0)
(0.230877 0.158518 0)
(0.144604 0.169257 0)
(0.0586542 0.197279 0)
(3 1.0326e-16 0)
(3 5.78254e-16 0)
(3 -3.20105e-16 0)
(3 1.10488e-15 0)
(3 -5.16298e-17 0)
(3 -2.01356e-15 0)
(3 -1.50759e-15 0)
(3 7.74447e-16 0)
(3 2.79834e-15 0)
(3 3.09779e-16 0)
(1.86463 0.131266 0)
(0.761754 0.138929 0)
(0.630198 0.140502 0)
(0.552096 0.150165 0)
(0.471013 0.161518 0)
(0.393329 0.171104 0)
(0.316741 0.174721 0)
(0.238178 0.1855 0)
(0.149466 0.198893 0)
(0.0612303 0.232476 0)
(3 6.19558e-17 0)
(3 4.13039e-16 0)
(3 -1.87933e-15 0)
(3 -3.39724e-15 0)
(3 -5.11135e-15 0)
(3 -4.12006e-15 0)
(3 -1.29075e-15 0)
(3 -2.01356e-15 0)
(3 -5.0907e-15 0)
(3 -5.75156e-15 0)
(1.91818 0.154415 0)
(0.768529 0.165527 0)
(0.632857 0.165038 0)
(0.557701 0.175292 0)
(0.480257 0.186492 0)
(0.40539 0.195754 0)
(0.328957 0.199833 0)
(0.24796 0.213753 0)
(0.154467 0.230306 0)
(0.0627035 0.268921 0)
(3 -6.81514e-16 0)
(3 -1.18749e-15 0)
(3 -1.73476e-15 0)
(3 -1.5902e-15 0)
(3 -1.30107e-15 0)
(3 -3.35594e-15 0)
(3 -2.77768e-15 0)
(3 -3.08746e-15 0)
(3 -6.98035e-15 0)
(3 -8.63251e-15 0)
(1.98706 0.177625 0)
(0.780992 0.192378 0)
(0.641193 0.189424 0)
(0.569931 0.198816 0)
(0.495834 0.210086 0)
(0.422754 0.22015 0)
(0.345517 0.225729 0)
(0.261947 0.243095 0)
(0.163568 0.263077 0)
(0.0669266 0.306873 0)
(3 -1.34238e-16 0)
(3 -2.57117e-15 0)
(3 -1.42498e-15 0)
(3 -4.3369e-16 0)
(3 5.98906e-16 0)
(3 -3.71735e-16 0)
(3 -2.01356e-15 0)
(3 -2.19943e-15 0)
(3 -3.43855e-15 0)
(3 -4.37821e-15 0)
(2.07247 0.197269 0)
(0.800159 0.218084 0)
(0.655446 0.210826 0)
(0.586669 0.220908 0)
(0.515483 0.232714 0)
(0.444258 0.244293 0)
(0.365559 0.252378 0)
(0.277426 0.274486 0)
(0.171492 0.298725 0)
(0.0682308 0.347104 0)
(3 -2.89127e-16 0)
(3 -3.30431e-16 0)
(3 -1.89998e-15 0)
(3 -7.22817e-16 0)
(3 1.0326e-15 0)
(3 2.20976e-15 0)
(3 -1.0326e-17 0)
(3 -3.27333e-15 0)
(3 -3.44887e-15 0)
(3 -4.69831e-15 0)
(2.16824 0.211235 0)
(0.821765 0.242844 0)
(0.668531 0.232827 0)
(0.604355 0.242553 0)
(0.537481 0.254427 0)
(0.468168 0.268266 0)
(0.387142 0.280465 0)
(0.293975 0.308117 0)
(0.181315 0.336685 0)
(0.072026 0.38912 0)
(3 -3.92387e-16 0)
(3 6.81514e-16 0)
(3 -4.23365e-16 0)
(3 1.02227e-15 0)
(3 5.67928e-16 0)
(3 2.27171e-16 0)
(3 -9.29337e-16 0)
(3 -3.84126e-15 0)
(3 -6.46405e-15 0)
(3 -5.43146e-15 0)
(2.26725 0.222466 0)
(0.842717 0.268207 0)
(0.683816 0.251373 0)
(0.624519 0.26023 0)
(0.560676 0.274038 0)
(0.492216 0.292129 0)
(0.408649 0.310255 0)
(0.309755 0.344818 0)
(0.188766 0.378313 0)
(0.0718428 0.43357 0)
(3 -5.16298e-17 0)
(3 -1.0326e-17 0)
(3 1.10488e-15 0)
(3 3.01518e-15 0)
(3 7.84773e-16 0)
(3 7.95099e-16 0)
(3 5.16298e-17 0)
(3 -2.08584e-15 0)
(3 -4.19234e-15 0)
(3 -1.44563e-16 0)
(2.37652 0.228082 0)
(0.868984 0.290483 0)
(0.696623 0.269489 0)
(0.63917 0.278708 0)
(0.578336 0.294227 0)
(0.512644 0.315894 0)
(0.429375 0.340842 0)
(0.328708 0.383034 0)
(0.202634 0.422204 0)
(0.0774848 0.480404 0)
(3 2.06519e-17 0)
(3 1.85867e-16 0)
(3 1.12553e-15 0)
(3 1.89998e-15 0)
(3 4.80157e-15 0)
(3 4.58473e-15 0)
(3 7.53795e-16 0)
(3 -9.91293e-16 0)
(3 1.25977e-15 0)
(3 3.86191e-15 0)
(2.48163 0.229496 0)
(0.889278 0.317298 0)
(0.694474 0.288295 0)
(0.636782 0.29872 0)
(0.578807 0.315934 0)
(0.520371 0.340673 0)
(0.444499 0.371712 0)
(0.346496 0.422945 0)
(0.214799 0.47069 0)
(0.0788034 0.531856 0)
(3 1.23912e-16 0)
(3 3.82061e-16 0)
(3 7.84773e-16 0)
(3 -3.40757e-16 0)
(3 1.73476e-15 0)
(3 4.21299e-15 0)
(3 4.56408e-15 0)
(3 4.66734e-15 0)
(3 3.35594e-15 0)
(3 2.35432e-15 0)
(2.58813 0.235323 0)
(0.909146 0.349116 0)
(0.692039 0.308042 0)
(0.632057 0.317104 0)
(0.57234 0.333089 0)
(0.518029 0.361487 0)
(0.450969 0.400745 0)
(0.362876 0.462542 0)
(0.233662 0.521284 0)
(0.088564 0.587716 0)
(3 -2.58149e-16 0)
(3 -1.13586e-16 0)
(3 3.09779e-17 0)
(3 -2.34399e-15 0)
(3 -5.20429e-15 0)
(3 -1.3114e-15 0)
(3 7.02166e-16 0)
(3 1.19781e-15 0)
(3 9.19011e-16 0)
(3 1.69346e-15 0)
(2.73909 0.231557 0)
(0.958223 0.383344 0)
(0.709538 0.331657 0)
(0.640567 0.341043 0)
(0.572993 0.354727 0)
(0.514381 0.381277 0)
(0.452646 0.426567 0)
(0.375503 0.500543 0)
(0.247343 0.576806 0)
(0.0912756 0.652044 0)
(3 3.09779e-16 0)
(3 9.70641e-16 0)
(3 1.44563e-16 0)
(3 -3.42822e-15 0)
(3 -4.76027e-15 0)
(3 -2.80866e-15 0)
(3 -4.13039e-17 0)
(3 -4.95646e-16 0)
(3 3.74832e-15 0)
(3 1.85867e-15 0)
(2.93475 0.183516 0)
(1.04794 0.414058 0)
(0.764641 0.352802 0)
(0.676229 0.365022 0)
(0.590259 0.378706 0)
(0.519336 0.403964 0)
(0.456439 0.451296 0)
(0.389138 0.536549 0)
(0.269915 0.633918 0)
(0.10465 0.723675 0)
(3 8.05425e-16 0)
(3 7.33143e-16 0)
(3 -3.71735e-16 0)
(3 -2.13747e-15 0)
(3 2.00324e-15 0)
(3 1.28042e-15 0)
(3 7.95099e-16 0)
(3 1.69346e-15 0)
(3 1.44563e-15 0)
(3 -1.85867e-15 0)
(3.06983 0.0838135 0)
(1.14804 0.414 0)
(0.835126 0.37611 0)
(0.730738 0.399809 0)
(0.623495 0.408341 0)
(0.537853 0.429686 0)
(0.467493 0.476328 0)
(0.40616 0.57072 0)
(0.294373 0.696865 0)
(0.111621 0.812109 0)
(3 7.74447e-16 0)
(3 -4.23365e-16 0)
(3 -2.64345e-15 0)
(3 1.20814e-15 0)
(3 1.8277e-15 0)
(3 8.88033e-16 0)
(3 4.3369e-16 0)
(3 2.64345e-15 0)
(3 1.5902e-15 0)
(3 6.9184e-16 0)
(3.05164 0.017669 0)
(1.19148 0.395388 0)
(0.85235 0.411931 0)
(0.777091 0.436657 0)
(0.670408 0.441431 0)
(0.575327 0.45805 0)
(0.491514 0.502671 0)
(0.430907 0.604841 0)
(0.338676 0.759913 0)
(0.133799 0.91528 0)
(3 9.29337e-17 0)
(3 4.3369e-16 0)
(3 1.32172e-15 0)
(3 4.5331e-15 0)
(3 2.82931e-15 0)
(3 1.80704e-15 0)
(3 3.57278e-15 0)
(3 3.65539e-15 0)
(3 2.64345e-15 0)
(3 1.8277e-15 0)
(3.00759 0.000837199 0)
(1.22872 0.39674 0)
(0.838174 0.429631 0)
(0.794027 0.466215 0)
(0.71292 0.472882 0)
(0.625064 0.490347 0)
(0.533825 0.529368 0)
(0.469309 0.634912 0)
(0.403633 0.824626 0)
(0.204802 1.07571 0)
(3 -2.16845e-16 0)
(3 1.44563e-16 0)
(3 1.02227e-15 0)
(3 1.43531e-15 0)
(3 1.40949e-15 0)
(3 1.47919e-15 0)
(3 1.26751e-15 0)
(3 3.53664e-16 0)
(3 1.36819e-16 0)
(3 -6.71188e-17 0)
(3.00042 -6.46378e-07 0)
(1.46576 0.430832 0)
(0.834787 0.455015 0)
(0.795869 0.502345 0)
(0.749071 0.527483 0)
(0.700995 0.555379 0)
(0.639683 0.598969 0)
(0.584021 0.713242 0)
(0.603762 0.903837 0)
(0.700301 1.1597 0)
(3 2.83964e-17 0)
(3 1.2133e-16 0)
(3 -4.38853e-16 0)
(3 -7.35725e-16 0)
(3 -5.85998e-16 0)
(3 -7.22817e-17 0)
(3 -1.172e-15 0)
(3 -9.19011e-16 0)
(3 -1.00936e-15 0)
(3 -2.1762e-15 0)
(3 -6.42167e-08 0)
(2.23139 0.435529 0)
(0.934617 0.55829 0)
(0.818791 0.552847 0)
(0.800424 0.590475 0)
(0.783311 0.634356 0)
(0.778684 0.700255 0)
(0.780551 0.796286 0)
(0.871779 0.924047 0)
(1.12465 1.03076 0)
(3 4.64668e-17 0)
(3 1.44563e-16 0)
(3 -6.60862e-16 0)
(3 -6.42791e-16 0)
(3 -4.54342e-16 0)
(3 -3.87224e-17 0)
(3 -6.66025e-16 0)
(3 1.29075e-17 0)
(3 6.22139e-16 0)
(3 7.17654e-16 0)
(3 -3.63073e-08 0)
(3.06337 0.0785806 0)
(1.3053 0.626368 0)
(0.936699 0.582859 0)
(0.900667 0.617276 0)
(0.883864 0.664194 0)
(0.895261 0.727312 0)
(0.935005 0.80974 0)
(1.05584 0.899201 0)
(1.2868 0.962212 0)
(3 -2.19427e-16 0)
(3 -7.35725e-16 0)
(3 -5.31787e-16 0)
(3 -6.32465e-16 0)
(3 -8.93196e-16 0)
(3 -9.96456e-16 0)
(3 -5.96324e-16 0)
(3 -1.0042e-15 0)
(3 -9.29337e-17 0)
(3 1.91547e-15 0)
(3 -4.6617e-09 0)
(3.00926 0.000466759 0)
(1.9578 0.564995 0)
(1.04242 0.707267 0)
(0.966233 0.710941 0)
(0.97072 0.728608 0)
(0.990209 0.767954 0)
(1.04753 0.813672 0)
(1.15885 0.865745 0)
(1.34789 0.901273 0)
(3 -1.0326e-17 0)
(3 -1.18232e-15 0)
(3 -8.88033e-16 0)
(3 -1.11004e-15 0)
(3 -1.71411e-15 0)
(3 -1.99033e-15 0)
(3 -2.86545e-16 0)
(3 -2.81383e-16 0)
(3 -3.87224e-16 0)
(3 -5.78254e-16 0)
(3 -1.63675e-10 0)
(3.00004 1.53318e-06 0)
(2.99072 0.132776 0)
(1.38815 0.740967 0)
(1.06366 0.743748 0)
(1.08361 0.749209 0)
(1.09516 0.779388 0)
(1.14884 0.809423 0)
(1.24041 0.837623 0)
(1.38296 0.858446 0)
(3 2.19427e-16 0)
(3 7.43469e-16 0)
(3 6.24721e-16 0)
(3 5.57602e-16 0)
(3 8.67381e-16 0)
(3 6.86677e-16 0)
(3 8.38985e-16 0)
(3 9.39663e-16 0)
(3 1.41208e-15 0)
(3 1.28042e-15 0)
(3 -2.43525e-13 0)
(3 -1.19504e-06 0)
(3.00986 0.00255209 0)
(2.19897 0.574248 0)
(1.21248 0.811941 0)
(1.14811 0.822267 0)
(1.18009 0.825543 0)
(1.22909 0.836624 0)
(1.30406 0.847083 0)
(1.41558 0.852633 0)
(3 -1.54889e-16 0)
(3 5.29206e-16 0)
(3 1.45854e-15 0)
(3 2.10133e-15 0)
(3 2.40595e-15 0)
(3 1.77607e-15 0)
(3 1.283e-15 0)
(3 1.43531e-15 0)
(3 1.19523e-15 0)
(3 1.97484e-15 0)
(3 1.71153e-15 0)
(3 -1.75515e-07 0)
(3.00003 1.73172e-05 0)
(3.00576 0.0802859 0)
(1.70463 0.766096 0)
(1.22924 0.846844 0)
(1.27065 0.841672 0)
(1.30792 0.847437 0)
(1.37304 0.847279 0)
(1.45644 0.845829 0)
(3 -2.19427e-16 0)
(3 -7.04747e-16 0)
(3 -6.9184e-16 0)
(3 -4.77576e-16 0)
(3 -5.05972e-16 0)
(3 -3.79479e-16 0)
(3 -5.57602e-16 0)
(3 -5.08554e-16 0)
(3 -7.12492e-16 0)
(3 -5.03391e-16 0)
(3 -1.0739e-15 0)
(3 -7.68886e-09 0)
(3 -4.75152e-09 0)
(3.00252 0.00257138 0)
(2.7729 0.320074 0)
(1.54363 0.862842 0)
(1.31604 0.889614 0)
(1.36989 0.880718 0)
(1.42678 0.874692 0)
(1.49147 0.869432 0)
(3 1.18749e-16 0)
(3 2.19427e-16 0)
(3 1.18749e-16 0)
(3 -2.83964e-17 0)
(3 2.19427e-16 0)
(3 2.60731e-16 0)
(3 6.47954e-16 0)
(3 6.55699e-16 0)
(3 -6.45373e-17 0)
(3 1.9103e-16 0)
(3 -1.48694e-15 0)
(3 -3.63091e-11 0)
(3 -1.16694e-09 0)
(3 7.58863e-06 0)
(3.00778 0.0177007 0)
(2.45472 0.554017 0)
(1.4936 0.915046 0)
(1.40545 0.905623 0)
(1.48037 0.889281 0)
(1.5304 0.882694 0)
(3 1.18749e-16 0)
(3 1.31656e-16 0)
(3 4.00131e-16 0)
(3 7.74447e-17 0)
(3 1.39401e-16 0)
(3 -1.39401e-16 0)
(3 4.18202e-16 0)
(3 3.20105e-16 0)
(3 1.16167e-16 0)
(3 -8.77707e-17 0)
(3 8.46729e-16 0)
(3 -2.33806e-14 0)
(3 -6.7042e-11 0)
(3 1.34285e-09 0)
(3.00006 0.000245581 0)
(2.99569 0.0587726 0)
(2.20108 0.698702 0)
(1.50803 0.925046 0)
(1.50014 0.925686 0)
(1.56178 0.906345 0)
(3 -1.9103e-16 0)
(3 -4.23365e-16 0)
(3 -8.90614e-16 0)
(3 -6.60862e-16 0)
(3 -9.73222e-16 0)
(3 -1.29333e-15 0)
(3 -2.01098e-15 0)
(3 -3.0539e-15 0)
(3 -2.01098e-15 0)
(3 -2.56858e-15 0)
(3 -2.10133e-15 0)
(3 -2.68217e-15 0)
(3 -1.23592e-12 0)
(3 -1.06223e-12 0)
(3 1.63029e-07 0)
(3.00027 0.00162355 0)
(2.93577 0.13931 0)
(2.07942 0.761598 0)
(1.58164 0.936124 0)
(1.57815 0.935094 0)
(3 2.22008e-16 0)
(3 5.16298e-16 0)
(3 5.55021e-16 0)
(3 4.10457e-16 0)
(3 -1.47661e-15 0)
(3 -3.04616e-15 0)
(3 -3.96775e-15 0)
(3 -4.76027e-15 0)
(3 -3.90838e-15 0)
(3 -3.85417e-15 0)
(3 -2.90676e-15 0)
(3 -1.75541e-16 0)
(3 -2.30011e-15 0)
(3 -2.43282e-13 0)
(3 3.32967e-11 0)
(3 2.70652e-06 0)
(2.99985 0.00573194 0)
(2.861 0.213707 0)
(2.06187 0.793193 0)
(1.65732 0.940071 0)
(3 2.14264e-16 0)
(3 5.21461e-16 0)
(3 7.17654e-16 0)
(3 1.00678e-16 0)
(3 3.82061e-16 0)
(3 -7.48632e-17 0)
(3 5.83417e-16 0)
(3 1.34754e-15 0)
(3 7.0991e-16 0)
(3 2.40853e-15 0)
(3 2.31043e-15 0)
(3 2.59956e-15 0)
(3 2.60731e-15 0)
(3 -1.18052e-14 0)
(3 -8.23754e-15 0)
(3 1.03973e-09 0)
(3 1.90187e-05 0)
(2.9974 0.0123099 0)
(2.85392 0.24164 0)
(2.00779 0.840441 0)
(3 3.76898e-16 0)
(3 -3.09779e-17 0)
(3 -1.64183e-15 0)
(3 -1.32689e-15 0)
(3 1.66764e-15 0)
(3 3.29656e-15 0)
(3 6.07941e-15 0)
(3 5.90645e-15 0)
(3 5.07779e-15 0)
(3 3.94968e-15 0)
(3 2.49888e-15 0)
(3 7.97681e-16 0)
(3 -1.08423e-15 0)
(3 -2.33367e-15 0)
(3 -3.94452e-15 0)
(3 7.42024e-14 0)
(3 1.14577e-08 0)
(2.99998 7.6259e-05 0)
(2.99924 0.0130841 0)
(2.75324 0.349233 0)
(3 1.60052e-16 0)
(3 -1.26493e-16 0)
(3 4.02713e-16 0)
(3 1.93612e-16 0)
(3 -3.56246e-16 0)
(3 -1.13586e-16 0)
(3 1.18749e-16 0)
(3 5.85998e-16 0)
(3 1.18749e-16 0)
(3 -7.12492e-16 0)
(3 -2.22008e-15 0)
(3 -2.74154e-15 0)
(3 -1.29849e-15 0)
(3 -9.13848e-16 0)
(3 -2.01873e-15 0)
(3 -3.21654e-15 0)
(3 1.32453e-12 0)
(3 4.32154e-08 0)
(2.99998 0.000145584 0)
(3.00727 0.0130474 0)
(3 -6.99584e-16 0)
(3 -4.28528e-16 0)
(3 5.78254e-16 0)
(3 1.06874e-15 0)
(3 -4.13039e-17 0)
(3 -3.22686e-16 0)
(3 -1.86384e-15 0)
(3 -1.5618e-15 0)
(3 -1.56438e-15 0)
(3 -1.66506e-15 0)
(3 -1.66506e-15 0)
(3 -1.07132e-15 0)
(3 -9.78385e-16 0)
(3 -4.69831e-16 0)
(3 -8.38985e-16 0)
(3 -2.42918e-15 0)
(3 -2.79834e-15 0)
(3 5.52005e-12 0)
(3 2.04102e-07 0)
(3.00029 4.5213e-05 0)
(3 -1.70378e-16 0)
(3 -4.49179e-16 0)
(3 -9.68059e-16 0)
(3 -6.0665e-16 0)
(3 -5.05972e-16 0)
(3 -5.42113e-17 0)
(3 -3.84642e-16 0)
(3 -4.54342e-16 0)
(3 -1.12295e-15 0)
(3 -7.74447e-16 0)
(3 1.7296e-16 0)
(3 -1.02485e-15 0)
(3 -3.46952e-15 0)
(3 -5.27399e-15 0)
(3 -3.26559e-15 0)
(3 -2.87836e-15 0)
(3 -3.03067e-15 0)
(3 4.95646e-16 0)
(3 5.65991e-11 0)
(3 2.28034e-08 0)
(3 1.96193e-16 0)
(3 4.95646e-16 0)
(3 5.03391e-16 0)
(3 6.42791e-16 0)
(3 8.95777e-16 0)
(3 6.53117e-16 0)
(3 1.45596e-15 0)
(3 1.63925e-15 0)
(3 6.32465e-16 0)
(3 7.58958e-16 0)
(3 5.96324e-16 0)
(3 7.17654e-16 0)
(3 1.53857e-15 0)
(3 2.1065e-15 0)
(3 2.08068e-15 0)
(3 1.92579e-15 0)
(3 1.61859e-15 0)
(3 6.71188e-16 0)
(3 3.0823e-15 0)
(3 8.92007e-13 0)
(3 6.97003e-17 0)
(3 3.1236e-16 0)
(3 5.21461e-16 0)
(3 2.71057e-16 0)
(3 3.74316e-16 0)
(3 3.71735e-16 0)
(3 3.22686e-16 0)
(3 2.2459e-16 0)
(3 6.68606e-16 0)
(3 1.43015e-15 0)
(3 1.95161e-15 0)
(3 3.2501e-15 0)
(3 4.93839e-15 0)
(3 5.92194e-15 0)
(3 5.68186e-15 0)
(3 5.54762e-15 0)
(3 4.78608e-15 0)
(3 2.53502e-15 0)
(3 1.24428e-15 0)
(3 -3.03943e-13 0)
(3 -2.73638e-16 0)
(3 -2.86545e-16 0)
(3 -4.05294e-16 0)
(3 -5.93743e-16 0)
(3 -7.7961e-16 0)
(3 -6.01487e-16 0)
(3 -1.16683e-15 0)
(3 -1.51017e-15 0)
(3 -1.34238e-15 0)
(3 -7.53795e-16 0)
(3 1.41982e-16 0)
(3 5.05972e-16 0)
(3 9.16429e-16 0)
(3 9.62896e-16 0)
(3 1.92837e-15 0)
(3 1.80446e-15 0)
(3 2.06519e-15 0)
(3 1.26235e-15 0)
(3 2.50405e-15 0)
(3 -4.56821e-14 0)
(1.65708 1.29104 0)
(2.06169 0.0611958 0)
(2.28232 -0.0799447 0)
(2.29818 -0.0492953 0)
(2.28585 0.000533927 0)
(2.25722 -0.00428239 0)
(2.26145 -0.00353124 0)
(2.26972 -0.00686708 0)
(2.1097 -0.085465 0)
(1.56473 -0.17271 0)
(1.51581 -0.0912228 0)
(1.64854 -0.0436777 0)
(1.80563 0.00110004 0)
(1.91696 0.00753253 0)
(2.02501 0.00901736 0)
(2.12528 0.00881115 0)
(2.22132 0.011727 0)
(2.30818 0.014178 0)
(2.37623 0.0182115 0)
(2.47616 0.0220098 0)
(1.8235 0.643573 0)
(2.23132 -0.181047 0)
(2.41648 -0.150575 0)
(2.37626 -0.0621916 0)
(2.3416 -0.00530026 0)
(2.30808 -0.00261323 0)
(2.31314 0.0138355 0)
(2.31343 -0.014844 0)
(2.10232 -0.365149 0)
(1.89345 -0.274138 0)
(1.69423 -0.0574643 0)
(1.72996 0.0141909 0)
(1.83902 0.0332558 0)
(1.94925 0.0336843 0)
(2.05418 0.0278501 0)
(2.1517 0.0227781 0)
(2.24497 0.0236916 0)
(2.32922 0.0242953 0)
(2.39662 0.0285739 0)
(2.49614 0.0294097 0)
(1.87175 0.693628 0)
(2.26922 0.209329 0)
(2.49266 -0.0435856 0)
(2.48659 -0.0792148 0)
(2.45232 -0.0102472 0)
(2.41814 0.00508142 0)
(2.42449 0.00509346 0)
(2.40483 -0.081681 0)
(2.10856 -0.532606 0)
(2.11852 -0.553537 0)
(1.91562 -0.205247 0)
(1.86973 -0.0126213 0)
(1.93742 0.0228492 0)
(2.02738 0.0187874 0)
(2.12021 0.0304864 0)
(2.20637 0.0454186 0)
(2.28709 0.0567581 0)
(2.36156 0.0542701 0)
(2.42296 0.0569628 0)
(2.51587 0.0670749 0)
(1.80058 0.77892 0)
(2.27257 0.268785 0)
(2.53675 0.0159649 0)
(2.54487 -0.158781 0)
(2.5343 -0.0995411 0)
(2.526 -0.01157 0)
(2.53625 0.0139341 0)
(2.43764 -0.184443 0)
(2.1457 -0.578918 0)
(2.19881 -0.691944 0)
(2.11385 -0.425489 0)
(2.01081 -0.116291 0)
(2.03398 0.0233474 0)
(2.09578 0.0755868 0)
(2.18262 0.0698991 0)
(2.26308 0.0661071 0)
(2.33587 0.0746284 0)
(2.40276 0.0729141 0)
(2.4588 0.0733057 0)
(2.54694 0.0771255 0)
(1.76689 0.761524 0)
(2.18783 0.414213 0)
(2.44947 0.215102 0)
(2.5314 -0.0733121 0)
(2.60762 -0.0753319 0)
(2.60737 -0.0453068 0)
(2.60723 -0.0346243 0)
(2.34467 -0.385311 0)
(2.16868 -0.59347 0)
(2.2047 -0.672475 0)
(2.22532 -0.587555 0)
(2.18716 -0.309607 0)
(2.10715 -0.0490349 0)
(2.16477 0.0668634 0)
(2.23053 0.10216 0)
(2.30645 0.0927022 0)
(2.37468 0.0964199 0)
(2.43781 0.099845 0)
(2.49068 0.107085 0)
(2.5727 0.116306 0)
(1.72253 0.775445 0)
(2.12612 0.502043 0)
(2.36374 0.321688 0)
(2.5132 -0.0439663 0)
(2.61883 -0.0694408 0)
(2.63509 -0.0711851 0)
(2.61028 -0.129338 0)
(2.23018 -0.563334 0)
(2.1678 -0.636116 0)
(2.20002 -0.653359 0)
(2.26895 -0.642737 0)
(2.29181 -0.484281 0)
(2.24476 -0.186917 0)
(2.21725 0.024623 0)
(2.27058 0.119525 0)
(2.33857 0.137286 0)
(2.40068 0.136607 0)
(2.46086 0.132068 0)
(2.51298 0.137975 0)
(2.59505 0.14416 0)
(1.71099 0.769787 0)
(2.05761 0.590365 0)
(2.2951 0.391836 0)
(2.46234 0.0813941 0)
(2.5474 0.0427409 0)
(2.58819 -0.0637908 0)
(2.50702 -0.314731 0)
(2.18274 -0.647437 0)
(2.16777 -0.679939 0)
(2.20498 -0.660902 0)
(2.2734 -0.636955 0)
(2.35305 -0.568465 0)
(2.36824 -0.380245 0)
(2.30924 -0.0625338 0)
(2.326 0.098682 0)
(2.36091 0.16589 0)
(2.41867 0.183304 0)
(2.48059 0.167214 0)
(2.53239 0.165267 0)
(2.61074 0.173748 0)
(1.70144 0.790209 0)
(2.02714 0.649056 0)
(2.23469 0.458551 0)
(2.42555 0.181256 0)
(2.55134 0.11057 0)
(2.50081 -0.120077 0)
(2.35099 -0.484501 0)
(2.11344 -0.730502 0)
(2.16537 -0.705202 0)
(2.2223 -0.669197 0)
(2.30209 -0.615539 0)
(2.36857 -0.567636 0)
(2.44176 -0.480305 0)
(2.4455 -0.274198 0)
(2.39725 0.030192 0)
(2.40455 0.184177 0)
(2.43511 0.213576 0)
(2.49778 0.210591 0)
(2.5476 0.208033 0)
(2.61792 0.211094 0)
(1.71354 0.799056 0)
(1.97618 0.7115 0)
(2.19693 0.489123 0)
(2.38672 0.297305 0)
(2.51902 0.17638 0)
(2.44685 -0.099231 0)
(2.12468 -0.640364 0)
(2.1227 -0.753856 0)
(2.1835 -0.721158 0)
(2.26249 -0.668444 0)
(2.34107 -0.598831 0)
(2.42035 -0.537201 0)
(2.47499 -0.496658 0)
(2.51265 -0.385302 0)
(2.50708 -0.155847 0)
(2.49059 0.0961137 0)
(2.47712 0.236351 0)
(2.50798 0.250789 0)
(2.56199 0.255869 0)
(2.63309 0.245021 0)
(1.72668 0.829581 0)
(1.94485 0.744642 0)
(2.16535 0.51707 0)
(2.34021 0.423141 0)
(2.47399 0.193615 0)
(2.33665 -0.216039 0)
(2.11818 -0.612861 0)
(2.13365 -0.707481 0)
(2.23016 -0.697611 0)
(2.31282 -0.652276 0)
(2.38589 -0.589433 0)
(2.45903 -0.521768 0)
(2.50808 -0.472022 0)
(2.5654 -0.418186 0)
(2.58108 -0.294011 0)
(2.57426 -0.0545336 0)
(2.56047 0.155775 0)
(2.55197 0.272518 0)
(2.56747 0.303334 0)
(2.635 0.295019 0)
(1.74456 0.860537 0)
(1.92776 0.757117 0)
(2.1382 0.552757 0)
(2.30836 0.522795 0)
(2.37318 0.218196 0)
(2.19213 -0.324704 0)
(2.07664 -0.639583 0)
(2.15574 -0.669629 0)
(2.2641 -0.657233 0)
(2.36003 -0.619179 0)
(2.44122 -0.575325 0)
(2.50042 -0.508758 0)
(2.5455 -0.444325 0)
(2.59796 -0.397986 0)
(2.63974 -0.348753 0)
(2.64779 -0.226499 0)
(2.62973 0.0188875 0)
(2.62986 0.206689 0)
(2.6043 0.320591 0)
(2.64209 0.336006 0)
(1.74273 0.901078 0)
(1.92103 0.766781 0)
(2.12874 0.605693 0)
(2.29561 0.592641 0)
(2.2163 0.146936 0)
(2.06942 -0.381172 0)
(2.07093 -0.573029 0)
(2.17487 -0.604176 0)
(2.29057 -0.610059 0)
(2.393 -0.58495 0)
(2.47143 -0.541089 0)
(2.5224 -0.49349 0)
(2.56762 -0.44249 0)
(2.61748 -0.38164 0)
(2.65788 -0.344415 0)
(2.70321 -0.292597 0)
(2.70682 -0.173177 0)
(2.68635 0.0826792 0)
(2.6745 0.279955 0)
(2.68185 0.34907 0)
(1.78018 0.89866 0)
(1.93039 0.779851 0)
(2.10857 0.705063 0)
(2.25758 0.580881 0)
(2.09978 0.0110352 0)
(1.98268 -0.426057 0)
(2.0659 -0.508632 0)
(2.19342 -0.537069 0)
(2.30541 -0.535997 0)
(2.39696 -0.522518 0)
(2.47411 -0.494334 0)
(2.53482 -0.459369 0)
(2.58576 -0.423955 0)
(2.6363 -0.373098 0)
(2.68289 -0.322628 0)
(2.72007 -0.300379 0)
(2.7678 -0.244315 0)
(2.76559 -0.111321 0)
(2.75146 0.141609 0)
(2.73654 0.349544 0)
(1.85794 0.836325 0)
(1.92937 0.820643 0)
(2.11554 0.797987 0)
(2.18546 0.514105 0)
(1.99034 -0.0956911 0)
(1.97165 -0.397786 0)
(2.06743 -0.436211 0)
(2.20052 -0.459861 0)
(2.31608 -0.474075 0)
(2.40974 -0.477417 0)
(2.48656 -0.454494 0)
(2.54978 -0.423763 0)
(2.60738 -0.393468 0)
(2.65704 -0.355021 0)
(2.70784 -0.307303 0)
(2.75024 -0.275629 0)
(2.79042 -0.247432 0)
(2.82544 -0.174081 0)
(2.82363 -0.0447458 0)
(2.81043 0.247191 0)
(1.96316 0.739043 0)
(1.92013 0.883571 0)
(2.0887 0.863474 0)
(2.04494 0.372581 0)
(1.87806 -0.182817 0)
(1.94173 -0.337471 0)
(2.06697 -0.360974 0)
(2.19718 -0.374332 0)
(2.3061 -0.382888 0)
(2.39507 -0.390505 0)
(2.47685 -0.382305 0)
(2.55395 -0.370591 0)
(2.62789 -0.3567 0)
(2.69051 -0.325511 0)
(2.74636 -0.28455 0)
(2.78332 -0.252214 0)
(2.82258 -0.215232 0)
(2.84537 -0.186022 0)
(2.88225 -0.115346 0)
(2.89008 0.0924182 0)
(2.15077 0.668279 0)
(1.89641 0.920941 0)
(2.03353 0.854848 0)
(1.80982 0.164353 0)
(1.78919 -0.183468 0)
(1.91934 -0.273252 0)
(2.07584 -0.300952 0)
(2.21386 -0.312277 0)
(2.33048 -0.327395 0)
(2.42673 -0.343684 0)
(2.51104 -0.343801 0)
(2.59209 -0.335212 0)
(2.66688 -0.322379 0)
(2.73631 -0.295428 0)
(2.78859 -0.26262 0)
(2.83778 -0.223986 0)
(2.86437 -0.187252 0)
(2.88893 -0.152316 0)
(2.90567 -0.112886 0)
(2.94112 -0.0180247 0)
(2.65086 0.557403 0)
(1.99039 0.959907 0)
(1.93269 0.668658 0)
(1.55372 -0.00780455 0)
(1.71242 -0.192648 0)
(1.90264 -0.208941 0)
(2.08715 -0.229047 0)
(2.23495 -0.238365 0)
(2.35394 -0.247838 0)
(2.45185 -0.256703 0)
(2.53716 -0.261018 0)
(2.61965 -0.258065 0)
(2.68961 -0.253032 0)
(2.75306 -0.228844 0)
(2.8 -0.223579 0)
(2.84908 -0.194578 0)
(2.88179 -0.163978 0)
(2.90916 -0.124917 0)
(2.92228 -0.095559 0)
(2.96143 -0.0181818 0)
(3.14783 0.226036 0)
(2.23535 1.01025 0)
(1.81339 0.456712 0)
(1.56402 0.0175308 0)
(1.75252 -0.15589 0)
(1.96044 -0.170869 0)
(2.14514 -0.17851 0)
(2.28835 -0.18557 0)
(2.40374 -0.194909 0)
(2.50045 -0.202244 0)
(2.58703 -0.207632 0)
(2.66226 -0.212614 0)
(2.73093 -0.203987 0)
(2.78553 -0.180559 0)
(2.82763 -0.162086 0)
(2.86676 -0.138744 0)
(2.89854 -0.117991 0)
(2.92239 -0.0947829 0)
(2.93753 -0.0724468 0)
(2.97185 -0.0301527 0)
(3.13 0.0145803 0)
(2.55592 0.849457 0)
(1.6818 0.128267 0)
(1.66085 -0.0907017 0)
(1.86159 -0.150803 0)
(2.06349 -0.134208 0)
(2.22068 -0.115222 0)
(2.34108 -0.114533 0)
(2.44372 -0.118709 0)
(2.53233 -0.119256 0)
(2.6021 -0.119255 0)
(2.68082 -0.126645 0)
(2.74589 -0.120477 0)
(2.79799 -0.105622 0)
(2.84901 -0.101219 0)
(2.89026 -0.0885757 0)
(2.91879 -0.0752835 0)
(2.94432 -0.0571413 0)
(2.96648 -0.0346478 0)
(2.9994 -0.00289914 0)
(3.01018 0.00108087 0)
(2.72672 0.676054 0)
(1.76253 0.168722 0)
(1.74788 0.0251212 0)
(1.93561 -0.0394222 0)
(2.12752 -0.047447 0)
(2.26483 -0.0400032 0)
(2.37549 -0.0390045 0)
(2.47645 -0.0397799 0)
(2.56918 -0.0445988 0)
(2.64941 -0.0497193 0)
(2.69525 -0.0443143 0)
(2.72571 -0.0542835 0)
(2.76637 -0.0530011 0)
(2.81641 -0.0549506 0)
(2.86232 -0.0491517 0)
(2.89676 -0.042864 0)
(2.93215 -0.0367635 0)
(2.96627 -0.032255 0)
(3.00399 -0.0144414 0)
)
;

boundaryField
{
    inlet
    {
        type            fixedValue;
        value           uniform (3 0 0);
    }
    outlet
    {
        type            inletOutlet;
        inletValue      uniform (3 0 0);
        value           nonuniform List<vector> 
20
(
(2.47616 0.0220098 0)
(2.49614 0.0294097 0)
(2.51587 0.0670749 0)
(2.54694 0.0771255 0)
(2.5727 0.116306 0)
(2.59505 0.14416 0)
(2.61074 0.173748 0)
(2.61792 0.211094 0)
(2.63309 0.245021 0)
(2.635 0.295019 0)
(2.64209 0.336006 0)
(2.68185 0.34907 0)
(2.73654 0.349544 0)
(2.81043 0.247191 0)
(2.89008 0.0924182 0)
(2.94112 -0.0180247 0)
(2.96143 -0.0181818 0)
(2.97185 -0.0301527 0)
(2.9994 -0.00289914 0)
(3.00399 -0.0144414 0)
)
;
    }
    bottom
    {
        type            symmetryPlane;
    }
    top
    {
        type            symmetryPlane;
    }
    obstacle
    {
        type            slip;
    }
    defaultFaces
    {
        type            empty;
    }
}


// ************************************************************************* //
